
    -----------------------------------------------------------------------
          Psi4: An Open-Source Ab Initio Electronic Structure Package
                               Psi4 1.1a2.dev170 

                         Git: Rev {master} e4fcd91 dirty


    J. M. Turney, A. C. Simmonett, R. M. Parrish, E. G. Hohenstein,
    F. A. Evangelista, J. T. Fermann, B. J. Mintz, L. A. Burns, J. J. Wilke,
    M. L. Abrams, N. J. Russ, M. L. Leininger, C. L. Janssen, E. T. Seidl,
    W. D. Allen, H. F. Schaefer, R. A. King, E. F. Valeev, C. D. Sherrill,
    and T. D. Crawford, WIREs Comput. Mol. Sci. 2, 556-565 (2012)
    (doi: 10.1002/wcms.93)


                         Additional Contributions by
    A. E. DePrince, U. Bozkaya, A. Yu. Sokolov, D. G. A. Smith, R. Di Remigio,
    R. M. Richard, J. F. Gonthier, H. R. McAlexander, M. Saitow, and
    B. P. Pritchard
    -----------------------------------------------------------------------


    Psi4 started on: Thursday, 27 September 2018 10:58AM

    Process ID:  12096
    PSIDATADIR: /usr/local/software/miniconda2/envs/p4env/share/psi4
    Memory:     500.0 MiB
    Threads:    8
    
  ==> Input File <==

--------------------------------------------------------------------------
memory 20 Gb

molecule conf6 {
0 1
C         -0.22000       -1.22200        0.23800
O         -1.06500        0.69600        1.39300
C         -0.20100        0.13900        0.51500
C          0.75600        0.93400       -0.08700
H          0.78300        1.98000        0.14600
O         -3.82400        1.31000        2.71500
C          1.68300        0.39300       -0.96200
C          1.65500       -0.96500       -1.23900
C          0.70300       -1.76700       -0.63300
H          0.68500       -2.81800       -0.84000
C         -2.28600        1.13100        0.86800
H         -2.87300        0.30500        0.48700
H         -2.13700        1.84000        0.06000
C         -3.06900        1.81800        1.96200
O         -2.77300        3.11500        1.96900
H         -3.26800        3.53400        2.66700
Cl         2.78400       -1.70500       -2.32300
Cl        -1.38800       -2.25700        0.99300
Cl         2.85300        1.44900       -1.67800
}
set globals {
  reference rhf
  opt_type ts
  g_convergence gau_tight
  basis 6-31G(d)
}
optimize('scf')
--------------------------------------------------------------------------

  Memory set to  20.000 GiB by Python script.
gradient() will perform analytic gradient computation.

*** tstart() called on dakota
*** at Thu Sep 27 10:58:39 2018


         ---------------------------------------------------------
                                   SCF
            by Justin Turney, Rob Parrish, and Andy Simmonett
                              RHF Reference
                        8 Threads,  20000 MiB Core
         ---------------------------------------------------------

  ==> Geometry <==

    Molecular point group: c1
    Full point group: C1

    Geometry (in Angstrom), charge = 0, multiplicity = 1:

       Center              X                  Y                   Z               Mass       
    ------------   -----------------  -----------------  -----------------  -----------------
           C         -0.249214028614    -1.239501297535     0.228160665717    12.000000000000
           O         -1.094214028614     0.678498702465     1.383160665717    15.994914619560
           C         -0.230214028614     0.121498702465     0.505160665717    12.000000000000
           C          0.726785971386     0.916498702465    -0.096839334283    12.000000000000
           H          0.753785971386     1.962498702465     0.136160665717     1.007825032070
           O         -3.853214028614     1.292498702465     2.705160665717    15.994914619560
           C          1.653785971386     0.375498702465    -0.971839334283    12.000000000000
           C          1.625785971386    -0.982501297535    -1.248839334283    12.000000000000
           C          0.673785971386    -1.784501297535    -0.642839334283    12.000000000000
           H          0.655785971386    -2.835501297535    -0.849839334283     1.007825032070
           C         -2.315214028614     1.113498702465     0.858160665717    12.000000000000
           H         -2.902214028614     0.287498702465     0.477160665717     1.007825032070
           H         -2.166214028614     1.822498702465     0.050160665717     1.007825032070
           C         -3.098214028614     1.800498702465     1.952160665717    12.000000000000
           O         -2.802214028614     3.097498702465     1.959160665717    15.994914619560
           H         -3.297214028614     3.516498702465     2.657160665717     1.007825032070
          CL          2.754785971386    -1.722501297535    -2.332839334283    34.968852682000
          CL         -1.417214028614    -2.274501297535     0.983160665717    34.968852682000
          CL          2.823785971386     1.431498702465    -1.687839334283    34.968852682000

  Running in c1 symmetry.

  Rotational constants: A =      0.02682  B =      0.00839  C =      0.00648 [cm^-1]
  Rotational constants: A =    803.95865  B =    251.44385  C =    194.41391 [MHz]
  Nuclear repulsion = 1167.219158285632830

  Charge       = 0
  Multiplicity = 1
  Electrons    = 128
  Nalpha       = 64
  Nbeta        = 64

  ==> Algorithm <==

  SCF Algorithm Type is DF.
  DIIS enabled.
  MOM disabled.
  Fractional occupation disabled.
  Guess Type is SAD.
  Energy threshold   = 1.00e-08
  Density threshold  = 1.00e-08
  Integral threshold = 0.00e+00

  ==> Primary Basis <==

  Basis Set: file /usr/local/software/miniconda2/envs/p4env/share/psi4/basis/6-31g_d_.gbs
    Number of shells: 100
    Number of basis function: 232
    Number of Cartesian functions: 232
    Spherical Harmonics?: false
    Max angular momentum: 2

  ==> Pre-Iterations <==

   -------------------------------------------------------
    Irrep   Nso     Nmo     Nalpha   Nbeta   Ndocc  Nsocc
   -------------------------------------------------------
     A        232     232       0       0       0       0
   -------------------------------------------------------
    Total     232     232      64      64      64       0
   -------------------------------------------------------

  ==> Integral Setup <==

  ==> DFJK: Density-Fitted J/K Matrices <==

    J tasked:                  Yes
    K tasked:                  Yes
    wK tasked:                  No
    OpenMP threads:              8
    Integrals threads:           8
    Memory (MB):             14305
    Algorithm:                Core
    Integral Cache:           NONE
    Schwarz Cutoff:          1E-12
    Fitting Condition:       1E-12

   => Auxiliary Basis Set <=

  Basis Set: file /usr/local/software/miniconda2/envs/p4env/share/psi4/basis/cc-pvdz-jkfit.gbs
    Number of shells: 417
    Number of basis function: 1406
    Number of Cartesian functions: 1406
    Spherical Harmonics?: false
    Max angular momentum: 3

  Minimum eigenvalue in the overlap matrix is 3.6999455605E-04.
  Using Symmetric Orthogonalization.

  SCF Guess: Superposition of Atomic Densities via on-the-fly atomic UHF.

  ==> Iterations <==

                           Total Energy        Delta E     RMS |[F,P]|

   @DF-RHF iter   0: -1914.39817361638234   -1.91440e+03   2.82047e-02 
   @DF-RHF iter   1: -1908.46565704959062    5.93252e+00   3.21283e-03 
   @DF-RHF iter   2: -1908.78762902818585   -3.21972e-01   1.61867e-03 DIIS
   @DF-RHF iter   3: -1908.85983451648781   -7.22055e-02   5.37823e-04 DIIS
   @DF-RHF iter   4: -1908.87304546384507   -1.32109e-02   1.40590e-04 DIIS
   @DF-RHF iter   5: -1908.87405163451012   -1.00617e-03   6.01093e-05 DIIS
   @DF-RHF iter   6: -1908.87424886736130   -1.97233e-04   2.44642e-05 DIIS
   @DF-RHF iter   7: -1908.87429152476147   -4.26574e-05   8.64475e-06 DIIS
   @DF-RHF iter   8: -1908.87429867443552   -7.14967e-06   4.12634e-06 DIIS
   @DF-RHF iter   9: -1908.87430038237426   -1.70794e-06   1.89796e-06 DIIS
   @DF-RHF iter  10: -1908.87430083781624   -4.55442e-07   5.82518e-07 DIIS
   @DF-RHF iter  11: -1908.87430087399775   -3.61815e-08   2.22503e-07 DIIS
   @DF-RHF iter  12: -1908.87430087690836   -2.91061e-09   7.83826e-08 DIIS
   @DF-RHF iter  13: -1908.87430087724056   -3.32193e-10   2.56350e-08 DIIS
   @DF-RHF iter  14: -1908.87430087729103   -5.04770e-11   8.86263e-09 DIIS

  ==> Post-Iterations <==

    Orbital Energies (a.u.)
    -----------------------

    Doubly Occupied:                                                      

       1A   -104.848598     2A   -104.847769     3A   -104.847661  
       4A    -20.631790     5A    -20.619888     6A    -20.574955  
       7A    -11.401937     8A    -11.339286     9A    -11.337998  
      10A    -11.334980    11A    -11.329959    12A    -11.318827  
      13A    -11.284581    14A    -11.277351    15A    -10.581852  
      16A    -10.580889    17A    -10.580792    18A     -8.051295  
      19A     -8.050335    20A     -8.050239    21A     -8.047762  
      22A     -8.047740    23A     -8.046793    24A     -8.046790  
      25A     -8.046753    26A     -8.046694    27A     -1.496751  
      28A     -1.453148    29A     -1.389674    30A     -1.245511  
      31A     -1.187231    32A     -1.155595    33A     -1.115066  
      34A     -1.057340    35A     -1.022878    36A     -0.982487  
      37A     -0.884780    38A     -0.857050    39A     -0.826762  
      40A     -0.747614    41A     -0.742070    42A     -0.723074  
      43A     -0.718675    44A     -0.680164    45A     -0.657328  
      46A     -0.646094    47A     -0.636414    48A     -0.632182  
      49A     -0.609481    50A     -0.595170    51A     -0.577467  
      52A     -0.569081    53A     -0.556678    54A     -0.529430  
      55A     -0.502071    56A     -0.500272    57A     -0.487925  
      58A     -0.482823    59A     -0.470558    60A     -0.465426  
      61A     -0.459995    62A     -0.458010    63A     -0.368174  
      64A     -0.347920  

    Virtual:                                                              

      65A      0.095038    66A      0.102965    67A      0.145972  
      68A      0.161934    69A      0.204521    70A      0.219582  
      71A      0.234603    72A      0.260406    73A      0.284680  
      74A      0.294333    75A      0.308563    76A      0.314168  
      77A      0.341630    78A      0.388142    79A      0.401999  
      80A      0.420037    81A      0.433677    82A      0.459118  
      83A      0.471793    84A      0.479589    85A      0.514444  
      86A      0.523720    87A      0.536965    88A      0.559750  
      89A      0.584941    90A      0.596795    91A      0.601371  
      92A      0.618970    93A      0.622905    94A      0.638170  
      95A      0.651818    96A      0.659756    97A      0.672188  
      98A      0.684876    99A      0.705253   100A      0.719749  
     101A      0.747754   102A      0.750810   103A      0.768330  
     104A      0.789167   105A      0.792806   106A      0.809888  
     107A      0.813511   108A      0.843234   109A      0.854849  
     110A      0.872977   111A      0.890027   112A      0.923357  
     113A      0.931849   114A      0.945917   115A      0.961690  
     116A      0.973652   117A      0.984260   118A      1.010628  
     119A      1.014990   120A      1.048225   121A      1.050869  
     122A      1.063062   123A      1.069826   124A      1.096865  
     125A      1.114450   126A      1.116532   127A      1.118501  
     128A      1.126148   129A      1.128179   130A      1.137446  
     131A      1.152973   132A      1.156264   133A      1.170004  
     134A      1.184651   135A      1.196619   136A      1.212391  
     137A      1.214332   138A      1.224931   139A      1.244188  
     140A      1.255060   141A      1.278567   142A      1.287957  
     143A      1.295142   144A      1.322126   145A      1.340835  
     146A      1.353584   147A      1.358089   148A      1.413117  
     149A      1.424849   150A      1.427768   151A      1.442327  
     152A      1.467567   153A      1.500390   154A      1.511883  
     155A      1.557548   156A      1.590619   157A      1.633021  
     158A      1.649792   159A      1.663646   160A      1.670605  
     161A      1.685899   162A      1.724769   163A      1.746506  
     164A      1.780456   165A      1.794195   166A      1.798004  
     167A      1.823618   168A      1.835187   169A      1.904138  
     170A      1.924744   171A      2.012869   172A      2.023317  
     173A      2.037578   174A      2.061001   175A      2.082000  
     176A      2.093656   177A      2.142222   178A      2.160443  
     179A      2.173110   180A      2.208431   181A      2.219269  
     182A      2.245076   183A      2.260106   184A      2.331873  
     185A      2.347331   186A      2.369753   187A      2.382611  
     188A      2.389898   189A      2.413893   190A      2.428250  
     191A      2.455507   192A      2.476987   193A      2.538274  
     194A      2.545497   195A      2.581949   196A      2.597089  
     197A      2.654106   198A      2.714661   199A      2.733883  
     200A      2.784751   201A      2.840053   202A      2.885779  
     203A      2.902046   204A      2.966688   205A      3.005651  
     206A      3.033305   207A      3.066638   208A      3.074764  
     209A      3.096854   210A      3.114970   211A      3.188505  
     212A      3.220317   213A      3.246209   214A      3.364406  
     215A      3.440855   216A      3.478150   217A      3.489153  
     218A      3.707660   219A      4.257585   220A      4.422309  
     221A      4.441016   222A      4.478353   223A      4.512734  
     224A      4.580103   225A      4.647951   226A      4.662965  
     227A      4.724032   228A      4.745642   229A      4.798718  
     230A      4.873472   231A      4.918747   232A      5.147704  

    Final Occupation by Irrep:
              A 
    DOCC [    64 ]

  Energy converged.

  @DF-RHF Final Energy: -1908.87430087729103

   => Energetics <=

    Nuclear Repulsion Energy =           1167.2191582856328296
    One-Electron Energy =               -4952.1631588510699657
    Two-Electron Energy =                1876.0696996881458745
    DFT Exchange-Correlation Energy =       0.0000000000000000
    Empirical Dispersion Energy =           0.0000000000000000
    PCM Polarization Energy =               0.0000000000000000
    EFP Energy =                            0.0000000000000000
    Total Energy =                      -1908.8743008772910343



Properties will be evaluated at   0.000000,   0.000000,   0.000000 Bohr

Properties computed using the SCF density matrix

  Nuclear Dipole Moment: (a.u.)
     X:   -10.3678      Y:     6.8292      Z:     5.1260

  Electronic Dipole Moment: (a.u.)
     X:    10.0493      Y:    -6.1465      Z:    -5.5340

  Dipole Moment: (a.u.)
     X:    -0.3185      Y:     0.6826      Z:    -0.4080     Total:     0.8567

  Dipole Moment: (Debye)
     X:    -0.8095      Y:     1.7351      Z:    -1.0371     Total:     2.1775


*** tstop() called on dakota at Thu Sep 27 10:59:06 2018
Module time:
	user time   =     103.15 seconds =       1.72 minutes
	system time =       2.36 seconds =       0.04 minutes
	total time  =         27 seconds =       0.45 minutes
Total time:
	user time   =     103.15 seconds =       1.72 minutes
	system time =       2.36 seconds =       0.04 minutes
	total time  =         27 seconds =       0.45 minutes

*** tstart() called on dakota
*** at Thu Sep 27 10:59:06 2018


         ------------------------------------------------------------
                                   SCF GRAD                          
                          Rob Parrish, Justin Turney,                
                       Andy Simmonett, and Alex Sokolov              
         ------------------------------------------------------------

  ==> Geometry <==

    Molecular point group: c1
    Full point group: C1

    Geometry (in Angstrom), charge = 0, multiplicity = 1:

       Center              X                  Y                   Z               Mass       
    ------------   -----------------  -----------------  -----------------  -----------------
           C         -0.249214028614    -1.239501297535     0.228160665717    12.000000000000
           O         -1.094214028614     0.678498702465     1.383160665717    15.994914619560
           C         -0.230214028614     0.121498702465     0.505160665717    12.000000000000
           C          0.726785971386     0.916498702465    -0.096839334283    12.000000000000
           H          0.753785971386     1.962498702465     0.136160665717     1.007825032070
           O         -3.853214028614     1.292498702465     2.705160665717    15.994914619560
           C          1.653785971386     0.375498702465    -0.971839334283    12.000000000000
           C          1.625785971386    -0.982501297535    -1.248839334283    12.000000000000
           C          0.673785971386    -1.784501297535    -0.642839334283    12.000000000000
           H          0.655785971386    -2.835501297535    -0.849839334283     1.007825032070
           C         -2.315214028614     1.113498702465     0.858160665717    12.000000000000
           H         -2.902214028614     0.287498702465     0.477160665717     1.007825032070
           H         -2.166214028614     1.822498702465     0.050160665717     1.007825032070
           C         -3.098214028614     1.800498702465     1.952160665717    12.000000000000
           O         -2.802214028614     3.097498702465     1.959160665717    15.994914619560
           H         -3.297214028614     3.516498702465     2.657160665717     1.007825032070
          CL          2.754785971386    -1.722501297535    -2.332839334283    34.968852682000
          CL         -1.417214028614    -2.274501297535     0.983160665717    34.968852682000
          CL          2.823785971386     1.431498702465    -1.687839334283    34.968852682000

  Nuclear repulsion = 1167.219158285632830

  ==> Basis Set <==

  Basis Set: file /usr/local/software/miniconda2/envs/p4env/share/psi4/basis/6-31g_d_.gbs
    Number of shells: 100
    Number of basis function: 232
    Number of Cartesian functions: 232
    Spherical Harmonics?: false
    Max angular momentum: 2

  ==> DFJKGrad: Density-Fitted SCF Gradients <==

    Gradient:                    1
    J tasked:                  Yes
    K tasked:                  Yes
    wK tasked:                  No
    OpenMP threads:              8
    Integrals threads:           8
    Memory (MB):             14305
    Schwarz Cutoff:          0E+00
    Fitting Condition:       1E-12

   => Auxiliary Basis Set <=

  Basis Set: file /usr/local/software/miniconda2/envs/p4env/share/psi4/basis/cc-pvdz-jkfit.gbs
    Number of shells: 417
    Number of basis function: 1406
    Number of Cartesian functions: 1406
    Spherical Harmonics?: false
    Max angular momentum: 3


  -Total Gradient:
     Atom            X                  Y                   Z
    ------   -----------------  -----------------  -----------------
       1        0.000386315675     0.000232449960    -0.000178556430
       2       -0.002026112308    -0.001061444448    -0.006605422813
       3       -0.002177572094     0.001629416016     0.002101450197
       4       -0.000474456413     0.000769327996     0.000382523683
       5        0.000229672018    -0.000626325782     0.000008466398
       6        0.002282551218     0.001952947887     0.001175590680
       7        0.000344873975    -0.000840440851    -0.000468747016
       8        0.000055539146     0.000139138125     0.000042624803
       9        0.000526235014    -0.000849161033    -0.000601909112
      10        0.000002865361     0.000369583432     0.000091583688
      11        0.011973189550     0.003682737567     0.015725706228
      12       -0.001490183693     0.001774141747    -0.002862377771
      13       -0.002988479082     0.001191774796    -0.001675835804
      14       -0.010467395480    -0.007251432495    -0.002268207527
      15        0.004818151342    -0.000301725574    -0.004218523975
      16       -0.000713842916    -0.000762802396    -0.000665970965
      17       -0.000047083116     0.000011367518     0.000030840255
      18       -0.000408187536    -0.000242596941     0.000113826245
      19        0.000173919122     0.000183044305    -0.000127060758


*** tstop() called on dakota at Thu Sep 27 10:59:19 2018
Module time:
	user time   =      50.38 seconds =       0.84 minutes
	system time =       0.91 seconds =       0.02 minutes
	total time  =         13 seconds =       0.22 minutes
Total time:
	user time   =     153.54 seconds =       2.56 minutes
	system time =       3.27 seconds =       0.05 minutes
	total time  =         40 seconds =       0.67 minutes

			-----------------------------------------
			 OPTKING 2.0: for geometry optimizations 
			  - R.A. King,  Bethel University        
			-----------------------------------------

	Internal coordinates to be generated automatically.
	Detected frag 1 with atoms:  1 2 3 4 5 6 7 8 9 10 11 12 13 14 15 16 17 18 19
	---Fragment 1 Bond Connectivity---
	 1 : 3 9 18
	 2 : 3 11
	 3 : 1 2 4
	 4 : 3 5 7
	 5 : 4
	 6 : 14
	 7 : 4 8 19
	 8 : 7 9 17
	 9 : 1 8 10
	 10 : 9
	 11 : 2 12 13 14
	 12 : 11
	 13 : 11
	 14 : 6 11 15
	 15 : 14 16
	 16 : 15
	 17 : 8
	 18 : 1
	 19 : 7

	---Fragment 1 Geometry and Gradient---
	 C          -0.4709462626       -2.3423179937        0.4311611725
	 O          -2.0677648448        1.2821767292        2.6137948560
	 C          -0.4350414660        0.2295992732        0.9546153113
	 C           1.3734264431        1.7319315488       -0.1829998207
	 H           1.4244490487        3.7085850838        0.2573063683
	 O          -7.2815192455        2.4424685748        5.1120128037
	 C           3.1252025683        0.7095897109       -1.8365101870
	 C           3.0722902366       -1.8566583775       -2.3599643258
	 C           1.2732709581       -3.3722187361       -1.2147902892
	 H           1.2392558877       -5.3583209018       -1.6059635987
	 C          -4.3751204531        2.1042075970        1.6216886362
	 H          -5.4843896931        0.5432938112        0.9017029796
	 H          -4.0935512593        3.4440234252        0.0947899208
	 C          -5.8547760151        3.4024494503        3.6890490256
	 O          -5.2954170798        5.8534242446        3.7022771085
	 H          -6.2308315156        6.6452194943        5.0213059493
	 CL          5.2057910406       -3.2550557159       -4.4084274538
	 CL         -2.6781463858       -4.2981845412        1.8579044028
	 CL          5.3361821438        2.7051405072       -3.1895540981
	             0.0003863157        0.0002324500       -0.0001785564
	            -0.0020261123       -0.0010614444       -0.0066054228
	            -0.0021775721        0.0016294160        0.0021014502
	            -0.0004744564        0.0007693280        0.0003825237
	             0.0002296720       -0.0006263258        0.0000084664
	             0.0022825512        0.0019529479        0.0011755907
	             0.0003448740       -0.0008404409       -0.0004687470
	             0.0000555391        0.0001391381        0.0000426248
	             0.0005262350       -0.0008491610       -0.0006019091
	             0.0000028654        0.0003695834        0.0000915837
	             0.0119731895        0.0036827376        0.0157257062
	            -0.0014901837        0.0017741417       -0.0028623778
	            -0.0029884791        0.0011917748       -0.0016758358
	            -0.0104673955       -0.0072514325       -0.0022682075
	             0.0048181513       -0.0003017256       -0.0042185240
	            -0.0007138429       -0.0007628024       -0.0006659710
	            -0.0000470831        0.0000113675        0.0000308403
	            -0.0004081875       -0.0002425969        0.0001138262
	             0.0001739191        0.0001830443       -0.0001270608

	Previous optimization step data not found.  Starting new optimization.

	---Fragment 1 Intrafragment Coordinates---
	 - Coordinate -           - BOHR/RAD -       - ANG/DEG -
	 R(1,3)           =         2.624891	       1.389032
	 R(1,9)           =         2.610009	       1.381157
	 R(1,18)          =         3.276086	       1.733630
	 R(2,3)           =         2.554718	       1.351898
	 R(2,11)          =         2.642707	       1.398460
	 R(3,4)           =         2.611844	       1.382128
	 R(4,5)           =         2.025742	       1.071977
	 R(4,7)           =         2.616868	       1.384787
	 R(6,14)          =         2.232036	       1.181143
	 R(7,8)           =         2.619625	       1.386246
	 R(7,19)          =         3.271297	       1.731096
	 R(8,9)           =         2.616260	       1.384465
	 R(8,17)          =         3.271627	       1.731270
	 R(9,10)          =         2.024543	       1.071342
	 R(11,12)         =         2.045803	       1.082592
	 R(11,13)         =         2.050807	       1.085240
	 R(11,14)         =         2.854609	       1.510594
	 R(14,15)         =         2.514028	       1.330366
	 R(15,16)         =         1.800494	       0.952780
	 B(1,3,2)         =         2.122890	     121.632615
	 B(1,3,4)         =         2.078536	     119.091369
	 B(1,9,8)         =         2.102476	     120.462985
	 B(1,9,10)        =         2.091769	     119.849529
	 B(2,3,4)         =         2.081061	     119.236009
	 B(2,11,12)       =         1.947869	     111.604695
	 B(2,11,13)       =         1.942122	     111.275378
	 B(2,11,14)       =         1.898793	     108.792836
	 B(3,1,9)         =         2.098154	     120.215389
	 B(3,1,18)        =         2.102883	     120.486326
	 B(3,2,11)        =         2.029009	     116.253670
	 B(3,4,5)         =         2.076050	     118.948930
	 B(3,4,7)         =         2.110651	     120.931411
	 B(4,7,8)         =         2.089152	     119.699564
	 B(4,7,19)        =         2.066294	     118.389900
	 B(5,4,7)         =         2.096343	     120.111586
	 B(6,14,11)       =         2.211089	     126.686068
	 B(6,14,15)       =         2.162978	     123.929483
	 B(7,8,9)         =         2.087373	     119.597678
	 B(7,8,17)        =         2.130180	     122.050342
	 B(8,7,19)        =         2.127738	     121.910406
	 B(8,9,10)        =         2.088937	     119.687277
	 B(9,1,18)        =         2.082086	     119.294757
	 B(9,8,17)        =         2.065624	     118.351535
	 B(11,14,15)      =         1.909076	     109.381977
	 B(12,11,13)      =         1.886919	     108.112509
	 B(12,11,14)      =         1.897391	     108.712510
	 B(13,11,14)      =         1.889414	     108.255473
	 B(14,15,16)      =         1.893358	     108.481441
	 D(1,3,2,11)      =        -1.552427	     -88.947508
	 D(1,3,4,5)       =        -3.116948	    -178.587993
	 D(1,3,4,7)       =         0.006623	       0.379488
	 D(1,9,8,7)       =         0.005593	       0.320466
	 D(1,9,8,17)      =        -3.140148	    -179.917212
	 D(2,3,1,9)       =        -3.106667	    -177.998908
	 D(2,3,1,18)      =         0.022916	       1.313017
	 D(2,3,4,5)       =        -0.014843	      -0.850422
	 D(2,3,4,7)       =         3.108729	     178.117058
	 D(2,11,14,6)     =        -1.560945	     -89.435585
	 D(2,11,14,15)    =         1.570919	      90.007008
	 D(3,1,9,8)       =        -0.000527	      -0.030205
	 D(3,1,9,10)      =         3.138149	     179.802676
	 D(3,2,11,12)     =         1.125354	      64.478009
	 D(3,2,11,13)     =        -0.984162	     -56.388333
	 D(3,2,11,14)     =        -3.064297	    -175.571278
	 D(3,4,7,8)       =        -0.001603	      -0.091842
	 D(3,4,7,19)      =        -3.140953	    -179.963344
	 D(4,3,1,9)       =        -0.005544	      -0.317666
	 D(4,3,1,18)      =         3.124039	     178.994259
	 D(4,3,2,11)      =         1.629693	      93.374521
	 D(4,7,8,9)       =        -0.004527	      -0.259405
	 D(4,7,8,17)      =         3.141372	     179.987378
	 D(5,4,7,8)       =         3.121760	     178.863699
	 D(5,4,7,19)      =        -0.017589	      -1.007803
	 D(6,14,11,12)    =         0.563630	      32.293634
	 D(6,14,11,13)    =         2.609452	     149.510563
	 D(6,14,15,16)    =        -0.001912	      -0.109559
	 D(7,8,9,10)      =        -3.133087	    -179.512685
	 D(8,9,1,18)      =        -3.130253	    -179.350307
	 D(9,8,7,19)      =         3.134741	     179.607426
	 D(10,9,1,18)     =         0.008423	       0.482574
	 D(10,9,8,17)     =         0.004357	       0.249637
	 D(11,14,15,16)   =        -3.134102	    -179.570831
	 D(12,11,14,15)   =        -2.587691	    -148.263773
	 D(13,11,14,15)   =        -0.541870	     -31.046844
	 D(17,8,7,19)     =        -0.002545	      -0.145791
	 R(11,18)         =         6.627680	       3.507217

	Current energy   :     -1908.8743008773

	Generating empirical Hessian (Schlegel '84) for each fragment.
	Taking PRFO optimization step.
	Maximizing along 1 lowest eigenvalue of Hessian.

 RFO min eigenvalues
 -0.002445 -0.000000 -0.000000 -0.000000 -0.000000 -0.000000 -0.000000 -0.000000
 -0.000000 -0.000000 -0.000000 -0.000000 -0.000000 -0.000000 -0.000000  0.000000
  0.000000  0.000000  0.000000  0.000000  0.000000  0.000000  0.000000  0.000000
  0.000000  0.000000  0.000000  0.000000  0.000000  0.000000  0.000000  0.000000
  0.000000  0.000000  0.000000  0.003870  0.005153  0.006201  0.012381  0.014219
  0.018380  0.019241  0.020067  0.020075  0.020133  0.020203  0.020381  0.020425
  0.020466  0.061941  0.066149  0.074435  0.109122  0.137639  0.159975  0.159999
  0.160013  0.220870  0.230982  0.239715  0.249864  0.249981  0.249992  0.249997
  0.249998  0.249999  0.250802  0.312993  0.319862  0.323752  0.323936  0.353693
  0.356830  0.369815  0.370610  0.415901  0.439071  0.455649  0.472474  0.481764
  0.485293  0.486948  0.541286  0.570558  0.594193  1.148996

 RFO max eigenvalues
 -0.000000  0.000000
	Norm of target step-size    0.30607

	Back-transformation to cartesian coordinates...
	Could not converge backtransformation.
	Using first guess instead.

	--- Internal Coordinate Step in ANG or DEG, aJ/ANG or AJ/DEG ---
	 ---------------------------------------------------------------------------
	   Coordinate                Previous        Force       Change         New 
	   ----------                --------       ------       ------       ------
	    1 R(1,3)          =      1.389032    -0.008184    -0.000989     1.388044
	    2 R(1,9)          =      1.381157    -0.006305    -0.000758     1.380399
	    3 R(1,18)         =      1.733630    -0.004950    -0.000951     1.732679
	    4 R(2,3)          =      1.351898     0.016017     0.001965     1.353863
	    5 R(2,11)         =      1.398460     0.038555     0.005493     1.403954
	    6 R(3,4)          =      1.382128    -0.002112    -0.000272     1.381857
	    7 R(4,5)          =      1.071977     0.004972     0.001156     1.073133
	    8 R(4,7)          =      1.384787    -0.008084    -0.000972     1.383815
	    9 R(6,14)         =      1.181143     0.012766     0.006246     1.187388
	   10 R(7,8)          =      1.386246     0.002274     0.000605     1.386851
	   11 R(7,19)         =      1.731096    -0.002321    -0.000386     1.730710
	   12 R(8,9)          =      1.384465     0.001753     0.000310     1.384775
	   13 R(8,17)         =      1.731270     0.000452     0.000203     1.731473
	   14 R(9,10)         =      1.071342     0.003133     0.000711     1.072053
	   15 R(11,12)        =      1.082592    -0.003804    -0.000361     1.082231
	   16 R(11,13)        =      1.085240    -0.013314    -0.002077     1.083163
	   17 R(11,14)        =      1.510594     0.042079     0.009406     1.520000
	   18 R(14,15)        =      1.330366     0.001239     0.003906     1.334272
	   19 R(15,16)        =      0.952780     0.003728     0.001375     0.954155
	   20 B(1,3,2)        =    121.632615    -0.000041    -0.119333   121.513282
	   21 B(1,3,4)        =    119.091369     0.000057     0.162129   119.253498
	   22 B(1,9,8)        =    120.462985    -0.000001    -0.006228   120.456757
	   23 B(1,9,10)       =    119.849529     0.000001     0.009905   119.859434
	   24 B(2,3,4)        =    119.236009    -0.000016    -0.035085   119.200924
	   25 B(2,11,12)      =    111.604695     0.000104    -0.377277   111.227418
	   26 B(2,11,13)      =    111.275378    -0.000007    -0.818505   110.456872
	   27 B(2,11,14)      =    108.792836    -0.000670    -2.675681   106.117155
	   28 B(3,1,9)        =    120.215389    -0.000026    -0.082069   120.133320
	   29 B(3,1,18)       =    120.486326    -0.000017    -0.056635   120.429691
	   30 B(3,2,11)       =    116.253670    -0.000030    -0.094479   116.159192
	   31 B(3,4,5)        =    118.948930    -0.000000    -0.001707   118.947223
	   32 B(3,4,7)        =    120.931411    -0.000015    -0.068777   120.862634
	   33 B(4,7,8)        =    119.699564    -0.000018    -0.033953   119.665611
	   34 B(4,7,19)       =    118.389900     0.000010     0.014103   118.404003
	   35 B(5,4,7)        =    120.111586     0.000015     0.074060   120.185647
	   36 B(6,14,11)      =    126.686068    -0.000585    -2.136886   124.549182
	   37 B(6,14,15)      =    123.929483    -0.000270    -0.620694   123.308789
	   38 B(7,8,9)        =    119.597678     0.000003     0.029620   119.627298
	   39 B(7,8,17)       =    122.050342    -0.000003    -0.013402   122.036941
	   40 B(8,7,19)       =    121.910406     0.000008     0.019936   121.930342
	   41 B(8,9,10)       =    119.687277    -0.000001    -0.003651   119.683626
	   42 B(9,1,18)       =    119.294757     0.000043     0.138227   119.432984
	   43 B(9,8,17)       =    118.351535     0.000001    -0.016088   118.335447
	   44 B(11,14,15)     =    109.381977     0.000856     2.632309   112.014286
	   45 B(12,11,13)     =    108.112509     0.000100     1.918183   110.030692
	   46 B(12,11,14)     =    108.712510     0.000161     0.467098   109.179608
	   47 B(13,11,14)     =    108.255473     0.000331     1.488689   109.744162
	   48 B(14,15,16)     =    108.481441     0.000110     0.589210   109.070651
	   49 D(1,3,2,11)     =    -88.947508    -0.000004    -0.830451   -89.777959
	   50 D(1,3,4,5)      =   -178.587993    -0.000003    -0.398383  -178.986376
	   51 D(1,3,4,7)      =      0.379488    -0.000001    -0.135913     0.243574
	   52 D(1,9,8,7)      =      0.320466    -0.000000    -0.041382     0.279085
	   53 D(1,9,8,17)     =   -179.917212    -0.000000    -0.003361  -179.920573
	   54 D(2,3,1,9)      =   -177.998908    -0.000001    -0.111314  -178.110221
	   55 D(2,3,1,18)     =      1.313017    -0.000001    -0.155331     1.157686
	   56 D(2,3,4,5)      =     -0.850422    -0.000001    -0.171249    -1.021671
	   57 D(2,3,4,7)      =    178.117058     0.000000     0.091221   178.208279
	   58 D(2,11,14,6)    =    -89.435585    -0.000018    -7.737870   -97.173455
	   59 D(2,11,14,15)   =     90.007008    -0.000006    -3.178476    86.828532
	   60 D(3,1,9,8)      =     -0.030205    -0.000000    -0.035983    -0.066188
	   61 D(3,1,9,10)     =    179.802676    -0.000000    -0.025122   179.777554
	   62 D(3,2,11,12)    =     64.478009     0.000030     1.657691    66.135700
	   63 D(3,2,11,13)    =    -56.388333    -0.000015     0.038868   -56.349466
	   64 D(3,2,11,14)    =   -175.571278    -0.000010     0.333737  -175.237541
	   65 D(3,4,7,8)      =     -0.091842     0.000000     0.060117    -0.031725
	   66 D(3,4,7,19)     =   -179.963344     0.000000     0.006353  -179.956990
	   67 D(4,3,1,9)      =     -0.317666     0.000001     0.123436    -0.194230
	   68 D(4,3,1,18)     =    178.994259     0.000000     0.079419   179.073678
	   69 D(4,3,2,11)     =     93.374521    -0.000006    -1.069542    92.304979
	   70 D(4,7,8,9)      =     -0.259405     0.000000     0.029737    -0.229668
	   71 D(4,7,8,17)     =    179.987378    -0.000000    -0.009739   179.977640
	   72 D(5,4,7,8)      =    178.863699     0.000002     0.325024   179.188723
	   73 D(5,4,7,19)     =     -1.007803     0.000002     0.271261    -0.736542
	   74 D(6,14,11,12)   =     32.293634    -0.000060    -9.497273    22.796361
	   75 D(6,14,11,13)   =    149.510563     0.000029    -6.040276   143.470287
	   76 D(6,14,15,16)   =     -0.109559     0.000018     4.727003     4.617444
	   77 D(7,8,9,10)     =   -179.512685    -0.000000    -0.052246  -179.564931
	   78 D(8,9,1,18)     =   -179.350307     0.000000     0.008915  -179.341392
	   79 D(9,8,7,19)     =    179.607426     0.000001     0.085448   179.692875
	   80 D(10,9,1,18)    =      0.482574     0.000000     0.019776     0.502350
	   81 D(10,9,8,17)    =      0.249637    -0.000000    -0.014226     0.235411
	   82 D(11,14,15,16)  =   -179.570831     0.000006     0.244244  -179.326587
	   83 D(12,11,14,15)  =   -148.263773    -0.000048    -4.937880  -153.201652
	   84 D(13,11,14,15)  =    -31.046844     0.000042    -1.480882   -32.527726
	   85 D(17,8,7,19)    =     -0.145791     0.000000     0.045973    -0.099818
	   86 R(11,18)        =      3.507217     0.002579     0.012812     3.520029
	 ---------------------------------------------------------------------------
	Successfully symmetrized geometry.

  ==> Convergence Check <==

  Measures of convergence in internal coordinates in au.
  Criteria marked as inactive (o), active & met (*), and active & unmet ( ).
  --------------------------------------------------------------------------------------------- ~
   Step     Total Energy     Delta E     MAX Force     RMS Force      MAX Disp      RMS Disp    ~
  --------------------------------------------------------------------------------------------- ~
    Convergence Criteria             o    1.50e-05 *    1.00e-05 *    6.00e-05 *    4.00e-05 *  ~
  --------------------------------------------------------------------------------------------- ~
      1   -1908.87430088   -1.91e+03 o    1.12e-02      2.16e-03      1.66e-01      3.16e-02    ~
  ---------------------------------------------------------------------------------------------

	Writing optimization data to binary file.
	Structure for next step:
	Cartesian Geometry (in Angstrom)
	    C    -0.2458410882  -1.2397274950   0.2373138538
	    O    -1.1155432200   0.6858497141   1.3597692590
	    C    -0.2394920341   0.1244419937   0.4935698730
	    C     0.7098567031   0.9217726752  -0.1167809740
	    H     0.7206122444   1.9732253554   0.0975699932
	    O    -3.9145914422   1.2948544716   2.6135799707
	    C     1.6452742469   0.3779330390  -0.9794375799
	    C     1.6320142465  -0.9849737072  -1.2356893970
	    C     0.6854964428  -1.7878281415  -0.6215787166
	    H     0.6788304662  -2.8425255359  -0.8135835585
	    C    -2.3343030123   1.1190301237   0.8138158621
	    H    -2.9228927827   0.2837354954   0.4573481573
	    H    -2.1597333358   1.8208345726   0.0074422983
	    C    -3.0807594715   1.8099901519   1.9433182696
	    O    -2.7522172723   3.0991900601   2.0448343638
	    H    -3.2350662710   3.4877701421   2.7702825420
	   CL     2.7727077899  -1.7297611392  -2.3043844186
	   CL    -1.4073385388  -2.2713876253   1.0046327337
	   CL     2.8059197855   1.4350511962  -1.7079698835
			--------------------------
			 OPTKING Finished Execution 
			--------------------------

    Structure for next step:
    Molecular point group: c1
    Full point group: C1

    Geometry (in Angstrom), charge = 0, multiplicity = 1:

    C           -0.244587612121    -1.241171388733     0.237168515767
    O           -1.114289743902     0.684405820376     1.359623920948
    C           -0.238238558002     0.122998099926     0.493424534889
    C            0.711110179227     0.920328781445    -0.116926312109
    H            0.721865720505     1.971781461675     0.097424655120
    O           -3.913337966049     1.293410577911     2.613434632668
    C            1.646527723050     0.376489145283    -0.979582918012
    C            1.633267722586    -0.986417600963    -1.235834735033
    C            0.686749918924    -1.789272035253    -0.621724054630
    H            0.680083942269    -2.843969429651    -0.813728896583
    C           -2.333049536157     1.117586229969     0.813670524042
    H           -2.921639306589     0.282291601710     0.457202819276
    H           -2.158479859738     1.819390678908     0.007296960264
    C           -3.079505995426     1.808546258176     1.943172931571
    O           -2.750963796200     3.097746166346     2.044689025686
    H           -3.233812794934     3.486326248387     2.770137203974
    CL           2.773961266032    -1.731205032953    -2.304529756621
    CL          -1.406085062717    -2.272831518980     1.004487395651
    CL           2.807173261580     1.433607302473    -1.708115221549

gradient() will perform analytic gradient computation.

*** tstart() called on dakota
*** at Thu Sep 27 10:59:20 2018


         ---------------------------------------------------------
                                   SCF
            by Justin Turney, Rob Parrish, and Andy Simmonett
                              RHF Reference
                        8 Threads,  20000 MiB Core
         ---------------------------------------------------------

  ==> Geometry <==

    Molecular point group: c1
    Full point group: C1

    Geometry (in Angstrom), charge = 0, multiplicity = 1:

       Center              X                  Y                   Z               Mass       
    ------------   -----------------  -----------------  -----------------  -----------------
           C         -0.244587612121    -1.241171388733     0.237168515767    12.000000000000
           O         -1.114289743902     0.684405820376     1.359623920948    15.994914619560
           C         -0.238238558002     0.122998099926     0.493424534889    12.000000000000
           C          0.711110179227     0.920328781445    -0.116926312109    12.000000000000
           H          0.721865720505     1.971781461675     0.097424655120     1.007825032070
           O         -3.913337966049     1.293410577911     2.613434632668    15.994914619560
           C          1.646527723050     0.376489145283    -0.979582918012    12.000000000000
           C          1.633267722586    -0.986417600963    -1.235834735033    12.000000000000
           C          0.686749918924    -1.789272035253    -0.621724054630    12.000000000000
           H          0.680083942269    -2.843969429651    -0.813728896583     1.007825032070
           C         -2.333049536157     1.117586229969     0.813670524042    12.000000000000
           H         -2.921639306589     0.282291601710     0.457202819276     1.007825032070
           H         -2.158479859738     1.819390678908     0.007296960264     1.007825032070
           C         -3.079505995426     1.808546258176     1.943172931571    12.000000000000
           O         -2.750963796200     3.097746166346     2.044689025686    15.994914619560
           H         -3.233812794934     3.486326248387     2.770137203974     1.007825032070
          CL          2.773961266032    -1.731205032953    -2.304529756621    34.968852682000
          CL         -1.406085062717    -2.272831518980     1.004487395651    34.968852682000
          CL          2.807173261580     1.433607302473    -1.708115221549    34.968852682000

  Running in c1 symmetry.

  Rotational constants: A =      0.02681  B =      0.00840  C =      0.00649 [cm^-1]
  Rotational constants: A =    803.67260  B =    251.69477  C =    194.47203 [MHz]
  Nuclear repulsion = 1166.912215250778445

  Charge       = 0
  Multiplicity = 1
  Electrons    = 128
  Nalpha       = 64
  Nbeta        = 64

  ==> Algorithm <==

  SCF Algorithm Type is DF.
  DIIS enabled.
  MOM disabled.
  Fractional occupation disabled.
  Guess Type is READ.
  Energy threshold   = 1.00e-08
  Density threshold  = 1.00e-08
  Integral threshold = 0.00e+00

  ==> Primary Basis <==

  Basis Set: file /usr/local/software/miniconda2/envs/p4env/share/psi4/basis/6-31g_d_.gbs
    Number of shells: 100
    Number of basis function: 232
    Number of Cartesian functions: 232
    Spherical Harmonics?: false
    Max angular momentum: 2

  Reading orbitals from file 180, no projection.

  ==> Pre-Iterations <==

   -------------------------------------------------------
    Irrep   Nso     Nmo     Nalpha   Nbeta   Ndocc  Nsocc
   -------------------------------------------------------
     A        232     232       0       0       0       0
   -------------------------------------------------------
    Total     232     232      64      64      64       0
   -------------------------------------------------------

  ==> Integral Setup <==

  ==> DFJK: Density-Fitted J/K Matrices <==

    J tasked:                  Yes
    K tasked:                  Yes
    wK tasked:                  No
    OpenMP threads:              8
    Integrals threads:           8
    Memory (MB):             14305
    Algorithm:                Core
    Integral Cache:           NONE
    Schwarz Cutoff:          1E-12
    Fitting Condition:       1E-12

   => Auxiliary Basis Set <=

  Basis Set: file /usr/local/software/miniconda2/envs/p4env/share/psi4/basis/cc-pvdz-jkfit.gbs
    Number of shells: 417
    Number of basis function: 1406
    Number of Cartesian functions: 1406
    Spherical Harmonics?: false
    Max angular momentum: 3

  Minimum eigenvalue in the overlap matrix is 3.6968274366E-04.
  Using Symmetric Orthogonalization.

  SCF Guess: Orbitals guess was supplied from a previous computation.

  ==> Iterations <==

                           Total Energy        Delta E     RMS |[F,P]|

   @DF-RHF iter   0: -1908.84628412339862   -1.90885e+03   1.10298e-03 
   @DF-RHF iter   1: -1908.87389162632257   -2.76075e-02   1.62248e-04 
   @DF-RHF iter   2: -1908.87496851989454   -1.07689e-03   7.67406e-05 DIIS
   @DF-RHF iter   3: -1908.87515182168818   -1.83302e-04   3.51518e-05 DIIS
   @DF-RHF iter   4: -1908.87521391596329   -6.20943e-05   1.10246e-05 DIIS
   @DF-RHF iter   5: -1908.87522158220895   -7.66625e-06   4.81670e-06 DIIS
   @DF-RHF iter   6: -1908.87522424902090   -2.66681e-06   1.83402e-06 DIIS
   @DF-RHF iter   7: -1908.87522452681628   -2.77795e-07   7.53518e-07 DIIS
   @DF-RHF iter   8: -1908.87522458479339   -5.79771e-08   2.75105e-07 DIIS
   @DF-RHF iter   9: -1908.87522459365073   -8.85734e-09   1.15600e-07 DIIS
   @DF-RHF iter  10: -1908.87522459478441   -1.13369e-09   4.73384e-08 DIIS
   @DF-RHF iter  11: -1908.87522459496017   -1.75760e-10   1.42259e-08 DIIS
   @DF-RHF iter  12: -1908.87522459497313   -1.29603e-11   5.40124e-09 DIIS

  ==> Post-Iterations <==

    Orbital Energies (a.u.)
    -----------------------

    Doubly Occupied:                                                      

       1A   -104.848776     2A   -104.847915     3A   -104.847722  
       4A    -20.631590     5A    -20.619036     6A    -20.573045  
       7A    -11.402902     8A    -11.338768     9A    -11.338140  
      10A    -11.335146    11A    -11.329740    12A    -11.321412  
      13A    -11.284743    14A    -11.277468    15A    -10.582038  
      16A    -10.580951    17A    -10.580945    18A     -8.051482  
      19A     -8.050400    20A     -8.050391    21A     -8.047948  
      22A     -8.047926    23A     -8.046912    24A     -8.046853  
      25A     -8.046848    26A     -8.046846    27A     -1.492352  
      28A     -1.451060    29A     -1.384902    30A     -1.245712  
      31A     -1.187595    32A     -1.155739    33A     -1.115208  
      34A     -1.056154    35A     -1.022017    36A     -0.981034  
      37A     -0.884525    38A     -0.856068    39A     -0.827459  
      40A     -0.746517    41A     -0.741949    42A     -0.721754  
      43A     -0.715448    44A     -0.679773    45A     -0.657384  
      46A     -0.647949    47A     -0.633586    48A     -0.631075  
      49A     -0.609848    50A     -0.593943    51A     -0.577269  
      52A     -0.568453    53A     -0.557107    54A     -0.529551  
      55A     -0.502166    56A     -0.497584    57A     -0.488358  
      58A     -0.483486    59A     -0.471283    60A     -0.464663  
      61A     -0.459688    62A     -0.458099    63A     -0.368391  
      64A     -0.347968  

    Virtual:                                                              

      65A      0.094986    66A      0.102987    67A      0.145715  
      68A      0.161439    69A      0.204586    70A      0.218752  
      71A      0.234607    72A      0.258750    73A      0.284656  
      74A      0.293621    75A      0.308913    76A      0.312275  
      77A      0.338567    78A      0.385251    79A      0.396149  
      80A      0.419788    81A      0.433555    82A      0.457683  
      83A      0.470436    84A      0.481549    85A      0.514023  
      86A      0.522339    87A      0.536373    88A      0.560916  
      89A      0.584854    90A      0.596678    91A      0.601549  
      92A      0.618755    93A      0.622768    94A      0.637551  
      95A      0.651627    96A      0.659469    97A      0.673036  
      98A      0.683448    99A      0.704590   100A      0.719208  
     101A      0.747880   102A      0.750910   103A      0.767828  
     104A      0.785626   105A      0.792629   106A      0.808684  
     107A      0.812642   108A      0.843404   109A      0.854820  
     110A      0.872900   111A      0.890346   112A      0.920061  
     113A      0.933429   114A      0.946343   115A      0.961502  
     116A      0.974292   117A      0.984914   118A      1.011355  
     119A      1.014224   120A      1.046651   121A      1.051426  
     122A      1.065792   123A      1.074415   124A      1.095991  
     125A      1.114113   126A      1.116287   127A      1.119353  
     128A      1.125968   129A      1.127945   130A      1.137030  
     131A      1.152632   132A      1.157747   133A      1.167675  
     134A      1.184625   135A      1.192884   136A      1.212414  
     137A      1.214192   138A      1.225287   139A      1.245539  
     140A      1.253784   141A      1.277965   142A      1.290698  
     143A      1.295373   144A      1.322136   145A      1.343292  
     146A      1.352434   147A      1.359304   148A      1.412707  
     149A      1.425727   150A      1.426720   151A      1.443557  
     152A      1.464367   153A      1.488156   154A      1.511794  
     155A      1.556512   156A      1.586962   157A      1.629930  
     158A      1.647870   159A      1.662209   160A      1.671253  
     161A      1.685194   162A      1.730465   163A      1.744889  
     164A      1.777728   165A      1.788868   166A      1.795216  
     167A      1.824743   168A      1.841718   169A      1.906029  
     170A      1.926988   171A      2.005918   172A      2.027436  
     173A      2.034735   174A      2.063194   175A      2.086678  
     176A      2.096018   177A      2.145084   178A      2.160098  
     179A      2.184178   180A      2.206691   181A      2.219439  
     182A      2.243193   183A      2.260285   184A      2.324532  
     185A      2.334893   186A      2.367352   187A      2.383761  
     188A      2.392296   189A      2.414273   190A      2.427932  
     191A      2.456651   192A      2.478127   193A      2.538421  
     194A      2.546553   195A      2.582608   196A      2.597556  
     197A      2.643794   198A      2.698951   199A      2.726638  
     200A      2.781676   201A      2.838625   202A      2.886182  
     203A      2.903806   204A      2.966687   205A      3.000418  
     206A      3.027053   207A      3.065599   208A      3.073931  
     209A      3.088500   210A      3.110749   211A      3.185006  
     212A      3.208471   213A      3.247134   214A      3.344855  
     215A      3.429176   216A      3.476576   217A      3.486355  
     218A      3.708564   219A      4.258020   220A      4.419935  
     221A      4.437533   222A      4.477979   223A      4.508883  
     224A      4.577442   225A      4.646130   226A      4.657162  
     227A      4.721779   228A      4.743985   229A      4.797530  
     230A      4.868565   231A      4.913535   232A      5.147908  

    Final Occupation by Irrep:
              A 
    DOCC [    64 ]

  Energy converged.

  @DF-RHF Final Energy: -1908.87522459497313

   => Energetics <=

    Nuclear Repulsion Energy =           1166.9122152507784449
    One-Electron Energy =               -4951.5967509833099029
    Two-Electron Energy =                1875.8093111375583248
    DFT Exchange-Correlation Energy =       0.0000000000000000
    Empirical Dispersion Energy =           0.0000000000000000
    PCM Polarization Energy =               0.0000000000000000
    EFP Energy =                            0.0000000000000000
    Total Energy =                      -1908.8752245949731332



Properties will be evaluated at   0.000000,   0.000000,   0.000000 Bohr

Properties computed using the SCF density matrix

  Nuclear Dipole Moment: (a.u.)
     X:   -10.3391      Y:     6.7984      Z:     5.1435

  Electronic Dipole Moment: (a.u.)
     X:    10.0897      Y:    -6.1369      Z:    -5.5081

  Dipole Moment: (a.u.)
     X:    -0.2494      Y:     0.6615      Z:    -0.3646     Total:     0.7954

  Dipole Moment: (Debye)
     X:    -0.6339      Y:     1.6813      Z:    -0.9267     Total:     2.0217


*** tstop() called on dakota at Thu Sep 27 10:59:43 2018
Module time:
	user time   =      87.03 seconds =       1.45 minutes
	system time =       2.06 seconds =       0.03 minutes
	total time  =         23 seconds =       0.38 minutes
Total time:
	user time   =     241.17 seconds =       4.02 minutes
	system time =       5.37 seconds =       0.09 minutes
	total time  =         64 seconds =       1.07 minutes

*** tstart() called on dakota
*** at Thu Sep 27 10:59:43 2018


         ------------------------------------------------------------
                                   SCF GRAD                          
                          Rob Parrish, Justin Turney,                
                       Andy Simmonett, and Alex Sokolov              
         ------------------------------------------------------------

  ==> Geometry <==

    Molecular point group: c1
    Full point group: C1

    Geometry (in Angstrom), charge = 0, multiplicity = 1:

       Center              X                  Y                   Z               Mass       
    ------------   -----------------  -----------------  -----------------  -----------------
           C         -0.244587612121    -1.241171388733     0.237168515767    12.000000000000
           O         -1.114289743902     0.684405820376     1.359623920948    15.994914619560
           C         -0.238238558002     0.122998099926     0.493424534889    12.000000000000
           C          0.711110179227     0.920328781445    -0.116926312109    12.000000000000
           H          0.721865720505     1.971781461675     0.097424655120     1.007825032070
           O         -3.913337966049     1.293410577911     2.613434632668    15.994914619560
           C          1.646527723050     0.376489145283    -0.979582918012    12.000000000000
           C          1.633267722586    -0.986417600963    -1.235834735033    12.000000000000
           C          0.686749918924    -1.789272035253    -0.621724054630    12.000000000000
           H          0.680083942269    -2.843969429651    -0.813728896583     1.007825032070
           C         -2.333049536157     1.117586229969     0.813670524042    12.000000000000
           H         -2.921639306589     0.282291601710     0.457202819276     1.007825032070
           H         -2.158479859738     1.819390678908     0.007296960264     1.007825032070
           C         -3.079505995426     1.808546258176     1.943172931571    12.000000000000
           O         -2.750963796200     3.097746166346     2.044689025686    15.994914619560
           H         -3.233812794934     3.486326248387     2.770137203974     1.007825032070
          CL          2.773961266032    -1.731205032953    -2.304529756621    34.968852682000
          CL         -1.406085062717    -2.272831518980     1.004487395651    34.968852682000
          CL          2.807173261580     1.433607302473    -1.708115221549    34.968852682000

  Nuclear repulsion = 1166.912215250778445

  ==> Basis Set <==

  Basis Set: file /usr/local/software/miniconda2/envs/p4env/share/psi4/basis/6-31g_d_.gbs
    Number of shells: 100
    Number of basis function: 232
    Number of Cartesian functions: 232
    Spherical Harmonics?: false
    Max angular momentum: 2

  ==> DFJKGrad: Density-Fitted SCF Gradients <==

    Gradient:                    1
    J tasked:                  Yes
    K tasked:                  Yes
    wK tasked:                  No
    OpenMP threads:              8
    Integrals threads:           8
    Memory (MB):             14305
    Schwarz Cutoff:          0E+00
    Fitting Condition:       1E-12

   => Auxiliary Basis Set <=

  Basis Set: file /usr/local/software/miniconda2/envs/p4env/share/psi4/basis/cc-pvdz-jkfit.gbs
    Number of shells: 417
    Number of basis function: 1406
    Number of Cartesian functions: 1406
    Spherical Harmonics?: false
    Max angular momentum: 3


  -Total Gradient:
     Atom            X                  Y                   Z
    ------   -----------------  -----------------  -----------------
       1        0.000210934347     0.000040653462    -0.000410601595
       2       -0.004262904947     0.001214571270    -0.001518065118
       3       -0.000669769050     0.000172275816     0.000246878696
       4       -0.000058923718    -0.000174700352     0.000128084690
       5       -0.000031608455     0.000295741474    -0.000025493423
       6       -0.008715921783    -0.002426977947     0.002723646687
       7       -0.000013807068    -0.000087443253     0.000106461613
       8        0.000105541763     0.000073284506    -0.000036036932
       9       -0.000212031235    -0.000014464650     0.000143045500
      10       -0.000057095304    -0.000155206054     0.000024588809
      11        0.003189242317    -0.002323002927    -0.000936895012
      12       -0.000249150237    -0.001069471577    -0.002038776056
      13        0.000305552106     0.000159285464    -0.000128938002
      14        0.013240350792    -0.005274785883     0.002226434031
      15       -0.002442186996     0.007364674468    -0.001710323671
      16       -0.000219579411     0.002007517765     0.001161307169
      17        0.000000239793    -0.000057813064    -0.000030897828
      18       -0.000127696986     0.000129209158     0.000081387378
      19        0.000008814160     0.000126652208    -0.000005806974


*** tstop() called on dakota at Thu Sep 27 10:59:57 2018
Module time:
	user time   =      51.16 seconds =       0.85 minutes
	system time =       0.86 seconds =       0.01 minutes
	total time  =         14 seconds =       0.23 minutes
Total time:
	user time   =     292.34 seconds =       4.87 minutes
	system time =       6.23 seconds =       0.10 minutes
	total time  =         78 seconds =       1.30 minutes

			-----------------------------------------
			 OPTKING 2.0: for geometry optimizations 
			  - R.A. King,  Bethel University        
			-----------------------------------------

	Previous internal coordinate definitions found.
	---Fragment 1 Geometry and Gradient---
	 C          -0.4622036024       -2.3454740087        0.4481835421
	 O          -2.1057024487        1.2933395643        2.5693168543
	 C          -0.4502056289        0.2324327237        0.9324372382
	 C           1.3438034890        1.7391693491       -0.2209587076
	 H           1.3641285165        3.7261269565        0.1841059168
	 O          -7.3951370213        2.4441917696        4.9386757219
	 C           3.1114864668        0.7114613766       -1.8511434395
	 C           3.0864286974       -1.8640591185       -2.3353891947
	 C           1.2977692685       -3.3812341239       -1.1748881935
	 H           1.2851723983       -5.3743233523       -1.5377247610
	 C          -4.4088246778        2.1119319045        1.5376144528
	 H          -5.5210981485        0.5334538168        0.8639881156
	 H          -4.0789357983        3.4381501119        0.0137892565
	 C          -5.8194229559        3.4176571266        3.6720646695
	 O          -5.1985681763        5.8538918836        3.8639022855
	 H          -6.1110205474        6.5882018193        5.2348006660
	 CL          5.2420270960       -3.2715033922       -4.3549301051
	 CL         -2.6571156881       -4.2950291171        1.8982060817
	 CL          5.3047886719        2.7091251838       -3.2278699721
	             0.0002109343        0.0000406535       -0.0004106016
	            -0.0042629049        0.0012145713       -0.0015180651
	            -0.0006697690        0.0001722758        0.0002468787
	            -0.0000589237       -0.0001747004        0.0001280847
	            -0.0000316085        0.0002957415       -0.0000254934
	            -0.0087159218       -0.0024269779        0.0027236467
	            -0.0000138071       -0.0000874433        0.0001064616
	             0.0001055418        0.0000732845       -0.0000360369
	            -0.0002120312       -0.0000144646        0.0001430455
	            -0.0000570953       -0.0001552061        0.0000245888
	             0.0031892423       -0.0023230029       -0.0009368950
	            -0.0002491502       -0.0010694716       -0.0020387761
	             0.0003055521        0.0001592855       -0.0001289380
	             0.0132403508       -0.0052747859        0.0022264340
	            -0.0024421870        0.0073646745       -0.0017103237
	            -0.0002195794        0.0020075178        0.0011613072
	             0.0000002398       -0.0000578131       -0.0000308978
	            -0.0001276970        0.0001292092        0.0000813874
	             0.0000088142        0.0001266522       -0.0000058070

	---Fragment 1 Intrafragment Coordinates---
	 - Coordinate -           - BOHR/RAD -       - ANG/DEG -
	 R(1,3)           =         2.623023	       1.388044
	 R(1,9)           =         2.608575	       1.380399
	 R(1,18)          =         3.274289	       1.732679
	 R(2,3)           =         2.558431	       1.353863
	 R(2,11)          =         2.653088	       1.403954
	 R(3,4)           =         2.611330	       1.381857
	 R(4,5)           =         2.027928	       1.073133
	 R(4,7)           =         2.615031	       1.383815
	 R(6,14)          =         2.243839	       1.187388
	 R(7,8)           =         2.620769	       1.386851
	 R(7,19)          =         3.270567	       1.730710
	 R(8,9)           =         2.616846	       1.384775
	 R(8,17)          =         3.272010	       1.731473
	 R(9,10)          =         2.025886	       1.072053
	 R(11,12)         =         2.045120	       1.082231
	 R(11,13)         =         2.046882	       1.083163
	 R(11,14)         =         2.872383	       1.520000
	 R(14,15)         =         2.521409	       1.334272
	 R(15,16)         =         1.803093	       0.954155
	 B(1,3,2)         =         2.120807	     121.513282
	 B(1,3,4)         =         2.081366	     119.253498
	 B(1,9,8)         =         2.102367	     120.456757
	 B(1,9,10)        =         2.091942	     119.859434
	 B(2,3,4)         =         2.080449	     119.200924
	 B(2,11,12)       =         1.941285	     111.227418
	 B(2,11,13)       =         1.927836	     110.456872
	 B(2,11,14)       =         1.852094	     106.117155
	 B(3,1,9)         =         2.096722	     120.133320
	 B(3,1,18)        =         2.101895	     120.429691
	 B(3,2,11)        =         2.027360	     116.159192
	 B(3,4,5)         =         2.076021	     118.947223
	 B(3,4,7)         =         2.109451	     120.862634
	 B(4,7,8)         =         2.088559	     119.665611
	 B(4,7,19)        =         2.066540	     118.404003
	 B(5,4,7)         =         2.097635	     120.185647
	 B(6,14,11)       =         2.173793	     124.549182
	 B(6,14,15)       =         2.152144	     123.308789
	 B(7,8,9)         =         2.087890	     119.627298
	 B(7,8,17)        =         2.129946	     122.036941
	 B(8,7,19)        =         2.128086	     121.930342
	 B(8,9,10)        =         2.088873	     119.683626
	 B(9,1,18)        =         2.084499	     119.432984
	 B(9,8,17)        =         2.065343	     118.335447
	 B(11,14,15)      =         1.955018	     112.014286
	 B(12,11,13)      =         1.920398	     110.030692
	 B(12,11,14)      =         1.905544	     109.179608
	 B(13,11,14)      =         1.915397	     109.744162
	 B(14,15,16)      =         1.903642	     109.070651
	 D(1,3,2,11)      =        -1.566921	     -89.777959
	 D(1,3,4,5)       =        -3.123902	    -178.986376
	 D(1,3,4,7)       =         0.004251	       0.243574
	 D(1,9,8,7)       =         0.004871	       0.279085
	 D(1,9,8,17)      =        -3.140206	    -179.920573
	 D(2,3,1,9)       =        -3.108610	    -178.110221
	 D(2,3,1,18)      =         0.020205	       1.157686
	 D(2,3,4,5)       =        -0.017832	      -1.021671
	 D(2,3,4,7)       =         3.110321	     178.208279
	 D(2,11,14,6)     =        -1.695997	     -97.173455
	 D(2,11,14,15)    =         1.515444	      86.828532
	 D(3,1,9,8)       =        -0.001155	      -0.066188
	 D(3,1,9,10)      =         3.137710	     179.777554
	 D(3,2,11,12)     =         1.154286	      66.135700
	 D(3,2,11,13)     =        -0.983484	     -56.349466
	 D(3,2,11,14)     =        -3.058472	    -175.237541
	 D(3,4,7,8)       =        -0.000554	      -0.031725
	 D(3,4,7,19)      =        -3.140842	    -179.956990
	 D(4,3,1,9)       =        -0.003390	      -0.194230
	 D(4,3,1,18)      =         3.125425	     179.073678
	 D(4,3,2,11)      =         1.611026	      92.304979
	 D(4,7,8,9)       =        -0.004008	      -0.229668
	 D(4,7,8,17)      =         3.141202	     179.977640
	 D(5,4,7,8)       =         3.127433	     179.188723
	 D(5,4,7,19)      =        -0.012855	      -0.736542
	 D(6,14,11,12)    =         0.397872	      22.796361
	 D(6,14,11,13)    =         2.504029	     143.470287
	 D(6,14,15,16)    =         0.080590	       4.617444
	 D(7,8,9,10)      =        -3.133999	    -179.564931
	 D(8,9,1,18)      =        -3.130098	    -179.341392
	 D(9,8,7,19)      =         3.136232	     179.692875
	 D(10,9,1,18)     =         0.008768	       0.502350
	 D(10,9,8,17)     =         0.004109	       0.235411
	 D(11,14,15,16)   =        -3.129839	    -179.326587
	 D(12,11,14,15)   =        -2.673873	    -153.201652
	 D(13,11,14,15)   =        -0.567716	     -32.527726
	 D(17,8,7,19)     =        -0.001742	      -0.099818
	 R(11,18)         =         6.651891	       3.520029

	Current energy   :     -1908.8752245950

	Energy change for the previous step:
		Projected    :        -0.0005890357
		Actual       :        -0.0009237177

	Performing Bofill update.
	Previous computed or guess Hessian on step 1.
	Steps to be used in Hessian update: 1
	Taking PRFO optimization step.
	Maximizing along 1 lowest eigenvalue of Hessian.

 RFO min eigenvalues
 -0.001118 -0.000000 -0.000000 -0.000000 -0.000000 -0.000000 -0.000000 -0.000000
 -0.000000 -0.000000 -0.000000 -0.000000 -0.000000 -0.000000 -0.000000 -0.000000
 -0.000000 -0.000000 -0.000000  0.000000  0.000000  0.000000  0.000000  0.000000
  0.000000  0.000000  0.000000  0.000000  0.000000  0.000000  0.000000  0.000000
  0.000000  0.000000  0.000000  0.000000  0.005137  0.012203  0.013695  0.018369
  0.019239  0.020067  0.020075  0.020133  0.020202  0.020337  0.020421  0.020465
  0.028045  0.061839  0.066204  0.073472  0.109589  0.137349  0.159973  0.159999
  0.161271  0.222123  0.230983  0.239713  0.248209  0.249860  0.249964  0.249982
  0.249998  0.249999  0.252997  0.314740  0.319860  0.323752  0.323935  0.353682
  0.357014  0.369818  0.370611  0.416034  0.439072  0.456519  0.472551  0.481760
  0.485293  0.486975  0.541258  0.570650  0.596349  1.148883

 RFO max eigenvalues
 -0.013783  0.001150
	Norm of target step-size    0.33358

	Back-transformation to cartesian coordinates...
	Could not converge backtransformation.
	Using first guess instead.

	--- Internal Coordinate Step in ANG or DEG, aJ/ANG or AJ/DEG ---
	 ---------------------------------------------------------------------------
	   Coordinate                Previous        Force       Change         New 
	   ----------                --------       ------       ------       ------
	    1 R(1,3)          =      1.388044    -0.003097    -0.000098     1.387946
	    2 R(1,9)          =      1.380399     0.001499    -0.000054     1.380344
	    3 R(1,18)         =      1.732679    -0.002063     0.000022     1.732702
	    4 R(2,3)          =      1.353863     0.004710    -0.000088     1.353775
	    5 R(2,11)         =      1.403954     0.042459    -0.000004     1.403949
	    6 R(3,4)          =      1.381857     0.000824     0.000019     1.381876
	    7 R(4,5)          =      1.073133    -0.002343    -0.000224     1.072909
	    8 R(4,7)          =      1.383815     0.000095    -0.000062     1.383753
	    9 R(6,14)         =      1.187388    -0.071768     0.003216     1.190605
	   10 R(7,8)          =      1.386851    -0.000894    -0.000151     1.386700
	   11 R(7,19)         =      1.730710    -0.000706     0.000010     1.730719
	   12 R(8,9)          =      1.384775    -0.001220     0.000009     1.384785
	   13 R(8,17)         =      1.731473    -0.000363    -0.000099     1.731374
	   14 R(9,10)         =      1.072053    -0.001225    -0.000107     1.071945
	   15 R(11,12)        =      1.082231    -0.013450    -0.000258     1.081973
	   16 R(11,13)        =      1.083163    -0.002047    -0.000209     1.082954
	   17 R(11,14)        =      1.520000    -0.025664    -0.000990     1.519009
	   18 R(14,15)        =      1.334272    -0.068863     0.002431     1.336703
	   19 R(15,16)        =      0.954155    -0.014925    -0.000891     0.953265
	   20 B(1,3,2)        =    121.513282    -0.000038    -0.002291   121.510991
	   21 B(1,3,4)        =    119.253498     0.000004    -0.004266   119.249233
	   22 B(1,9,8)        =    120.456757     0.000001     0.005934   120.462690
	   23 B(1,9,10)       =    119.859434     0.000005    -0.005745   119.853689
	   24 B(2,3,4)        =    119.200924     0.000034     0.004515   119.205439
	   25 B(2,11,12)      =    111.227418     0.000028     0.072985   111.300403
	   26 B(2,11,13)      =    110.456872    -0.000038     0.071970   110.528842
	   27 B(2,11,14)      =    106.117155     0.000088     0.056197   106.173351
	   28 B(3,1,9)        =    120.133320    -0.000003    -0.004568   120.128753
	   29 B(3,1,18)       =    120.429691    -0.000026     0.004583   120.434274
	   30 B(3,2,11)       =    116.159192     0.000048     0.006248   116.165440
	   31 B(3,4,5)        =    118.947223    -0.000001    -0.000459   118.946764
	   32 B(3,4,7)        =    120.862634    -0.000001     0.008582   120.871216
	   33 B(4,7,8)        =    119.665611    -0.000004    -0.005809   119.659802
	   34 B(4,7,19)       =    118.404003     0.000013     0.007021   118.411024
	   35 B(5,4,7)        =    120.185647     0.000003    -0.008866   120.176781
	   36 B(6,14,11)      =    124.549182     0.000036     0.172650   124.721832
	   37 B(6,14,15)      =    123.308789     0.000106     0.189915   123.498704
	   38 B(7,8,9)        =    119.627298     0.000003    -0.000047   119.627251
	   39 B(7,8,17)       =    122.036941    -0.000007    -0.005609   122.031332
	   40 B(8,7,19)       =    121.930342    -0.000010    -0.001230   121.929111
	   41 B(8,9,10)       =    119.683626    -0.000006    -0.000204   119.683423
	   42 B(9,1,18)       =    119.432984     0.000029     0.000034   119.433018
	   43 B(9,8,17)       =    118.335447     0.000004     0.005618   118.341065
	   44 B(11,14,15)     =    112.014286    -0.000121    -0.260968   111.753318
	   45 B(12,11,13)     =    110.030692     0.000052    -0.166049   109.864644
	   46 B(12,11,14)     =    109.179608    -0.000129    -0.003466   109.176141
	   47 B(13,11,14)     =    109.744162    -0.000003    -0.024833   109.719329
	   48 B(14,15,16)     =    109.070651    -0.000201    -0.274400   108.796251
	   49 D(1,3,2,11)     =    -89.777959     0.000003     0.355370   -89.422589
	   50 D(1,3,4,5)      =   -178.986376     0.000001     0.099294  -178.887082
	   51 D(1,3,4,7)      =      0.243574     0.000000     0.038074     0.281648
	   52 D(1,9,8,7)      =      0.279085    -0.000000     0.011989     0.291074
	   53 D(1,9,8,17)     =   -179.920573    -0.000000     0.000296  -179.920277
	   54 D(2,3,1,9)      =   -178.110221    -0.000000     0.030667  -178.079555
	   55 D(2,3,1,18)     =      1.157686     0.000001     0.035154     1.192840
	   56 D(2,3,4,5)      =     -1.021671     0.000001     0.035933    -0.985739
	   57 D(2,3,4,7)      =    178.208279     0.000000    -0.025287   178.182992
	   58 D(2,11,14,6)    =    -97.173455     0.000025     8.747035   -88.426419
	   59 D(2,11,14,15)   =     86.828532    -0.000050     6.554097    93.382628
	   60 D(3,1,9,8)      =     -0.066188    -0.000000     0.009330    -0.056858
	   61 D(3,1,9,10)     =    179.777554     0.000000     0.003144   179.780697
	   62 D(3,2,11,12)    =     66.135700     0.000013    -0.769156    65.366544
	   63 D(3,2,11,13)    =    -56.349466    -0.000001    -0.657950   -57.007415
	   64 D(3,2,11,14)    =   -175.237541    -0.000007    -0.699904  -175.937446
	   65 D(3,4,7,8)      =     -0.031725    -0.000000    -0.017011    -0.048736
	   66 D(3,4,7,19)     =   -179.956990     0.000000    -0.002453  -179.959444
	   67 D(4,3,1,9)      =     -0.194230     0.000000    -0.034065    -0.228295
	   68 D(4,3,1,18)     =    179.073678     0.000002    -0.029577   179.044100
	   69 D(4,3,2,11)     =     92.304979     0.000002     0.420252    92.725231
	   70 D(4,7,8,9)      =     -0.229668     0.000000    -0.008198    -0.237866
	   71 D(4,7,8,17)     =    179.977640     0.000000     0.003917   179.981557
	   72 D(5,4,7,8)      =    179.188723    -0.000001    -0.078914   179.109809
	   73 D(5,4,7,19)     =     -0.736542    -0.000000    -0.064357    -0.800899
	   74 D(6,14,11,12)   =     22.796361     0.000029     8.863750    31.660111
	   75 D(6,14,11,13)   =    143.470287     0.000025     8.642410   152.112697
	   76 D(6,14,15,16)   =      4.617444    -0.000038    -2.032517     2.584926
	   77 D(7,8,9,10)     =   -179.564931    -0.000001     0.018174  -179.546757
	   78 D(8,9,1,18)     =   -179.341392    -0.000002     0.004853  -179.336538
	   79 D(9,8,7,19)     =    179.692875    -0.000000    -0.023279   179.669596
	   80 D(10,9,1,18)    =      0.502350    -0.000001    -0.001333     0.501017
	   81 D(10,9,8,17)    =      0.235411    -0.000001     0.006481     0.241892
	   82 D(11,14,15,16)  =   -179.326587     0.000036     0.128445  -179.198143
	   83 D(12,11,14,15)  =   -153.201652    -0.000046     6.670811  -146.530841
	   84 D(13,11,14,15)  =    -32.527726    -0.000051     6.449471   -26.078255
	   85 D(17,8,7,19)    =     -0.099818    -0.000000    -0.011163    -0.110981
	   86 R(11,18)        =      3.520029     0.004026    -0.006373     3.513657
	 ---------------------------------------------------------------------------
	Successfully symmetrized geometry.

  ==> Convergence Check <==

  Measures of convergence in internal coordinates in au.
  Criteria marked as inactive (o), active & met (*), and active & unmet ( ).
  ---------------------------------------------------------------------------------------------
   Step     Total Energy     Delta E     MAX Force     RMS Force      MAX Disp      RMS Disp   
  ---------------------------------------------------------------------------------------------
    Convergence Criteria             o    1.50e-05 *    1.00e-05 *    6.00e-05 *    4.00e-05 *
  ---------------------------------------------------------------------------------------------
      2   -1908.87522459   -9.24e-04 o    8.71e-03      1.69e-03      1.55e-01      3.60e-02    ~
  ---------------------------------------------------------------------------------------------

	Writing optimization data to binary file.
	Structure for next step:
	Cartesian Geometry (in Angstrom)
	    C    -0.2516061668  -1.2389496882   0.2281241000
	    O    -1.1037795890   0.6866369466   1.3635293866
	    C    -0.2324623638   0.1231478360   0.4940508367
	    C     0.7258208171   0.9154127534  -0.1089333569
	    H     0.7474730680   1.9646722241   0.1140469976
	    O    -3.7982907771   1.2462197850   2.7158361760
	    C     1.6570544037   0.3688462412  -0.9742893513
	    C     1.6307106944  -0.9918012540  -1.2405256786
	    C     0.6755548088  -1.7897773053  -0.6334510800
	    H     0.6589404212  -2.8428625366  -0.8329552289
	    C    -2.3211459513   1.1282959191   0.8212835408
	    H    -2.9100452720   0.2996598561   0.4508427714
	    H    -2.1458361956   1.8404182784   0.0244542218
	    C    -3.0698472803   1.8041148054   1.9571113933
	    O    -2.8444036522   3.1213853466   1.9844628099
	    H    -3.3222837007   3.4996287211   2.7174539522
	   CL     2.7655727567  -1.7397930451  -2.3130240861
	   CL    -1.4240343650  -2.2648855488   0.9864924853
	   CL     2.8293578460   1.4196720312  -1.6932186646
			--------------------------
			 OPTKING Finished Execution 
			--------------------------

    Structure for next step:
    Molecular point group: c1
    Full point group: C1

    Geometry (in Angstrom), charge = 0, multiplicity = 1:

    C           -0.254323081232    -1.235317607036     0.226521848564
    O           -1.106496503410     0.690269027710     1.361927135234
    C           -0.235179278205     0.126779917152     0.492448585279
    C            0.723103902622     0.919044834497    -0.110535608272
    H            0.744756153578     1.968304305207     0.112444746217
    O           -3.801007691592     1.249851866100     2.714233924627
    C            1.654337489252     0.372478322303    -0.975891602746
    C            1.627993779983    -0.988169172891    -1.242127929963
    C            0.672837894397    -1.786145224184    -0.635053331372
    H            0.656223506778    -2.839230455500    -0.834557480267
    C           -2.323862865780     1.131928000215     0.819681289419
    H           -2.912762186428     0.303291937215     0.449240519990
    H           -2.148553110007     1.844050359519     0.022851970354
    C           -3.072564194752     1.807746886526     1.955509141850
    O           -2.847120566625     3.125017427702     1.982860558530
    H           -3.325000615099     3.503260802214     2.715851700755
    CL           2.762855842275    -1.736160963923    -2.314626337489
    CL          -1.426751279455    -2.261253467645     0.984890233927
    CL           2.826640931539     1.423304112295    -1.694820915979

gradient() will perform analytic gradient computation.

*** tstart() called on dakota
*** at Thu Sep 27 10:59:57 2018


         ---------------------------------------------------------
                                   SCF
            by Justin Turney, Rob Parrish, and Andy Simmonett
                              RHF Reference
                        8 Threads,  20000 MiB Core
         ---------------------------------------------------------

  ==> Geometry <==

    Molecular point group: c1
    Full point group: C1

    Geometry (in Angstrom), charge = 0, multiplicity = 1:

       Center              X                  Y                   Z               Mass       
    ------------   -----------------  -----------------  -----------------  -----------------
           C         -0.254323081232    -1.235317607036     0.226521848564    12.000000000000
           O         -1.106496503410     0.690269027710     1.361927135234    15.994914619560
           C         -0.235179278205     0.126779917152     0.492448585279    12.000000000000
           C          0.723103902622     0.919044834497    -0.110535608272    12.000000000000
[...]
	 R(11,14)         =         2.867625	       1.517482
	 R(14,15)         =         2.507033	       1.326665
	 R(15,16)         =         1.801011	       0.953054
	 B(1,3,2)         =         2.119980	     121.465932
	 B(1,3,4)         =         2.080674	     119.213840
	 B(1,9,8)         =         2.103310	     120.510781
	 B(1,9,10)        =         2.091895	     119.856734
	 B(2,3,4)         =         2.081918	     119.285092
	 B(2,11,12)       =         1.933343	     110.772403
	 B(2,11,13)       =         1.929503	     110.552363
	 B(2,11,14)       =         1.851734	     106.096560
	 B(3,1,9)         =         2.096058	     120.095276
	 B(3,1,18)        =         2.103080	     120.497608
	 B(3,2,11)        =         2.025030	     116.025684
	 B(3,4,5)         =         2.076207	     118.957908
	 B(3,4,7)         =         2.110476	     120.921390
	 B(4,7,8)         =         2.088105	     119.639607
	 B(4,7,19)        =         2.067203	     118.441985
	 B(5,4,7)         =         2.096403	     120.115017
	 B(6,14,11)       =         2.168270	     124.232734
	 B(6,14,15)       =         2.157775	     123.631407
	 B(7,8,9)         =         2.087730	     119.618090
	 B(7,8,17)        =         2.129770	     122.026813
	 B(8,7,19)        =         2.127875	     121.918285
	 B(8,9,10)        =         2.087978	     119.632337
	 B(9,1,18)        =         2.083996	     119.404159
	 B(9,8,17)        =         2.065679	     118.354705
	 B(11,14,15)      =         1.957135	     112.135580
	 B(12,11,13)      =         1.921772	     110.109447
	 B(12,11,14)      =         1.894400	     108.541130
	 B(13,11,14)      =         1.931786	     110.683159
	 B(14,15,16)      =         1.893547	     108.492237
	 D(1,3,2,11)      =        -1.580972	     -90.583019
	 D(1,3,4,5)       =        -3.121587	    -178.853770
	 D(1,3,4,7)       =         0.004883	       0.279772
	 D(1,9,8,7)       =         0.005160	       0.295661
	 D(1,9,8,17)      =        -3.140327	    -179.927477
	 D(2,3,1,9)       =        -3.107275	    -178.033770
	 D(2,3,1,18)      =         0.023335	       1.336996
	 D(2,3,4,5)       =        -0.017064	      -0.977697
	 D(2,3,4,7)       =         3.109406	     178.155845
	 D(2,11,14,6)     =        -1.264566	     -72.454276
	 D(2,11,14,15)    =         1.880279	     107.732061
	 D(3,1,9,8)       =        -0.001411	      -0.080858
	 D(3,1,9,10)      =         3.137729	     179.778636
	 D(3,2,11,12)     =         1.111723	      63.697028
	 D(3,2,11,13)     =        -1.023495	     -58.641972
	 D(3,2,11,14)     =        -3.118806	    -178.694435
	 D(3,4,7,8)       =        -0.001155	      -0.066204
	 D(3,4,7,19)      =        -3.140564	    -179.941066
	 D(4,3,1,9)       =        -0.003589	      -0.205644
	 D(4,3,1,18)      =         3.127021	     179.165122
	 D(4,3,2,11)      =         1.598553	      91.590368
	 D(4,7,8,9)       =        -0.003871	      -0.221788
	 D(4,7,8,17)      =        -3.141421	    -179.990170
	 D(5,4,7,8)       =         3.125141	     179.057365
	 D(5,4,7,19)      =        -0.014268	      -0.817497
	 D(6,14,11,12)    =         0.813876	      46.631660
	 D(6,14,11,13)    =         2.924796	     167.578461
	 D(6,14,15,16)    =         0.014710	       0.842848
	 D(7,8,9,10)      =        -3.133986	    -179.564147
	 D(8,9,1,18)      =        -3.132142	    -179.458507
	 D(9,8,7,19)      =         3.135459	     179.648577
	 D(10,9,1,18)     =         0.006999	       0.400987
	 D(10,9,8,17)     =         0.003713	       0.212716
	 D(11,14,15,16)   =        -3.130111	    -179.342178
	 D(12,11,14,15)   =        -2.324464	    -133.182003
	 D(13,11,14,15)   =        -0.213545	     -12.235202
	 D(17,8,7,19)     =        -0.002091	      -0.119804
	 R(11,18)         =         6.680237	       3.535029

	Current energy   :     -1908.8749060695

	Energy change for the previous step:
		Projected    :        -0.0000000000
		Actual       :        -0.0000000041

	Performing Bofill update.
	Previous computed or guess Hessian on step 1.
	Denominators (dg)(dq) or (dq)(dq) are very small.
	 Skipping Hessian update for step 20.
	Denominators (dg)(dq) or (dq)(dq) are very small.
	 Skipping Hessian update for step 19.
	Denominators (dg)(dq) or (dq)(dq) are very small.
	 Skipping Hessian update for step 18.
	Denominators (dg)(dq) or (dq)(dq) are very small.
	 Skipping Hessian update for step 17.
	Denominators (dg)(dq) or (dq)(dq) are very small.
	 Skipping Hessian update for step 16.
	Denominators (dg)(dq) or (dq)(dq) are very small.
	 Skipping Hessian update for step 15.
	Denominators (dg)(dq) or (dq)(dq) are very small.
	 Skipping Hessian update for step 14.
	Denominators (dg)(dq) or (dq)(dq) are very small.
	 Skipping Hessian update for step 13.
	Denominators (dg)(dq) or (dq)(dq) are very small.
	 Skipping Hessian update for step 12.
	Denominators (dg)(dq) or (dq)(dq) are very small.
	 Skipping Hessian update for step 11.
	Steps to be used in Hessian update: 10 9
	Taking PRFO optimization step.
	Maximizing along 1 lowest eigenvalue of Hessian.

 RFO min eigenvalues
 -0.000000 -0.000000 -0.000000 -0.000000 -0.000000 -0.000000 -0.000000 -0.000000
 -0.000000 -0.000000 -0.000000 -0.000000 -0.000000 -0.000000 -0.000000 -0.000000
 -0.000000  0.000000  0.000000  0.000000  0.000000  0.000000  0.000000  0.000000
  0.000000  0.000000  0.000000  0.000000  0.000000  0.000000  0.000000  0.000000
  0.000000  0.000000  0.000000  0.000000  0.002183  0.008900  0.017827  0.018988
  0.019818  0.020098  0.020205  0.020316  0.020395  0.020450  0.022641  0.028144
  0.045645  0.065895  0.069075  0.070957  0.112481  0.135855  0.159961  0.160007
  0.173656  0.225295  0.231016  0.239667  0.240485  0.249896  0.249993  0.250011
  0.250106  0.250960  0.309692  0.319870  0.323753  0.323936  0.347678  0.355329
  0.361158  0.369891  0.370641  0.416209  0.439082  0.453857  0.472639  0.481773
  0.485336  0.487246  0.541320  0.563108  0.572903  1.181091

 RFO max eigenvalues
 -0.003378  0.000000
	Norm of target step-size    0.00008

	Back-transformation to cartesian coordinates...
	Successfully converged to displaced geometry.

	--- Internal Coordinate Step in ANG or DEG, aJ/ANG or AJ/DEG ---
	 ---------------------------------------------------------------------------
	   Coordinate                Previous        Force       Change         New 
	   ----------                --------       ------       ------       ------
	    1 R(1,3)          =      1.388279    -0.000002    -0.000000     1.388279
	    2 R(1,9)          =      1.380709    -0.000004    -0.000001     1.380709
	    3 R(1,18)         =      1.732113     0.000000    -0.000000     1.732113
	    4 R(2,3)          =      1.354266    -0.000001    -0.000000     1.354266
	    5 R(2,11)         =      1.410086    -0.000004    -0.000001     1.410085
	    6 R(3,4)          =      1.382140     0.000001     0.000000     1.382140
	    7 R(4,5)          =      1.072761    -0.000002    -0.000000     1.072760
	    8 R(4,7)          =      1.383711    -0.000002    -0.000000     1.383711
	    9 R(6,14)         =      1.182750    -0.000004    -0.000000     1.182750
	   10 R(7,8)          =      1.386674    -0.000001    -0.000000     1.386674
	   11 R(7,19)         =      1.730649    -0.000001    -0.000000     1.730649
	   12 R(8,9)          =      1.384514    -0.000001    -0.000000     1.384513
	   13 R(8,17)         =      1.731520    -0.000001    -0.000000     1.731520
	   14 R(9,10)         =      1.071877    -0.000002    -0.000000     1.071876
	   15 R(11,12)        =      1.081521     0.000000     0.000000     1.081521
	   16 R(11,13)        =      1.081447    -0.000002    -0.000000     1.081447
	   17 R(11,14)        =      1.517482     0.000000     0.000000     1.517482
	   18 R(14,15)        =      1.326665     0.000010     0.000000     1.326665
	   19 R(15,16)        =      0.953054     0.000000    -0.000000     0.953054
	   20 B(1,3,2)        =    121.465932     0.000000    -0.000054   121.465877
	   21 B(1,3,4)        =    119.213840    -0.000000    -0.000019   119.213821
	   22 B(1,9,8)        =    120.510781    -0.000000    -0.000023   120.510758
	   23 B(1,9,10)       =    119.856734     0.000000     0.000051   119.856785
	   24 B(2,3,4)        =    119.285092     0.000000     0.000053   119.285145
	   25 B(2,11,12)      =    110.772403    -0.000000     0.000035   110.772438
	   26 B(2,11,13)      =    110.552363    -0.000000    -0.000144   110.552218
	   27 B(2,11,14)      =    106.096560     0.000000     0.000062   106.096622
	   28 B(3,1,9)        =    120.095276     0.000000     0.000041   120.095317
	   29 B(3,1,18)       =    120.497608    -0.000000    -0.000087   120.497522
	   30 B(3,2,11)       =    116.025684    -0.000000    -0.000076   116.025609
	   31 B(3,4,5)        =    118.957908    -0.000000    -0.000020   118.957888
	   32 B(3,4,7)        =    120.921390     0.000000    -0.000001   120.921390
	   33 B(4,7,8)        =    119.639607    -0.000000    -0.000013   119.639594
	   34 B(4,7,19)       =    118.441985    -0.000000    -0.000041   118.441944
	   35 B(5,4,7)        =    120.115017     0.000000     0.000017   120.115034
	   36 B(6,14,11)      =    124.232734    -0.000000    -0.000095   124.232639
	   37 B(6,14,15)      =    123.631407    -0.000000     0.000093   123.631499
	   38 B(7,8,9)        =    119.618090     0.000000     0.000017   119.618107
	   39 B(7,8,17)       =    122.026813     0.000000     0.000036   122.026849
	   40 B(8,7,19)       =    121.918285     0.000000     0.000052   121.918337
	   41 B(8,9,10)       =    119.632337    -0.000000    -0.000029   119.632309
	   42 B(9,1,18)       =    119.404159    -0.000000     0.000032   119.404190
	   43 B(9,8,17)       =    118.354705    -0.000000    -0.000052   118.354653
	   44 B(11,14,15)     =    112.135580     0.000000     0.000004   112.135584
	   45 B(12,11,13)     =    110.109447     0.000000     0.000007   110.109454
	   46 B(12,11,14)     =    108.541130     0.000000     0.000035   108.541165
	   47 B(13,11,14)     =    110.683159     0.000000     0.000010   110.683170
	   48 B(14,15,16)     =    108.492237     0.000000     0.000109   108.492346
	   49 D(1,3,2,11)     =    -90.583019    -0.000000     0.000031   -90.582988
	   50 D(1,3,4,5)      =   -178.853770     0.000000     0.000169  -178.853601
	   51 D(1,3,4,7)      =      0.279772    -0.000000    -0.000103     0.279668
	   52 D(1,9,8,7)      =      0.295661    -0.000000    -0.000209     0.295452
	   53 D(1,9,8,17)     =   -179.927477     0.000000     0.000149  -179.927328
	   54 D(2,3,1,9)      =   -178.033770     0.000000     0.001237  -178.032534
	   55 D(2,3,1,18)     =      1.336996    -0.000000    -0.000277     1.336719
	   56 D(2,3,4,5)      =     -0.977697    -0.000000    -0.000435    -0.978132
	   57 D(2,3,4,7)      =    178.155845    -0.000000    -0.000707   178.155137
	   58 D(2,11,14,6)    =    -72.454276     0.000000     0.000829   -72.453448
	   59 D(2,11,14,15)   =    107.732061    -0.000000     0.000381   107.732442
	   60 D(3,1,9,8)      =     -0.080858    -0.000000    -0.000468    -0.081326
	   61 D(3,1,9,10)     =    179.778636    -0.000000    -0.000684   179.777952
	   62 D(3,2,11,12)    =     63.697028    -0.000000    -0.001781    63.695247
	   63 D(3,2,11,13)    =    -58.641972     0.000000    -0.001715   -58.643687
	   64 D(3,2,11,14)    =   -178.694435    -0.000000    -0.001685  -178.696120
	   65 D(3,4,7,8)      =     -0.066204    -0.000000    -0.000570    -0.066774
	   66 D(3,4,7,19)     =   -179.941066     0.000000     0.000501  -179.940565
	   67 D(4,3,1,9)      =     -0.205644     0.000000     0.000622    -0.205023
	   68 D(4,3,1,18)     =    179.165122    -0.000000    -0.000892   179.164230
	   69 D(4,3,2,11)     =     91.590368    -0.000000     0.000649    91.591017
	   70 D(4,7,8,9)      =     -0.221788     0.000000     0.000723    -0.221065
	   71 D(4,7,8,17)     =   -179.990170     0.000000     0.000351  -179.989818
	   72 D(5,4,7,8)      =    179.057365    -0.000000    -0.000846   179.056519
	   73 D(5,4,7,19)     =     -0.817497     0.000000     0.000225    -0.817272
	   74 D(6,14,11,12)   =     46.631660     0.000000     0.000922    46.632581
	   75 D(6,14,11,13)   =    167.578461     0.000000     0.000959   167.579420
	   76 D(6,14,15,16)   =      0.842848    -0.000000    -0.001161     0.841687
	   77 D(7,8,9,10)     =   -179.564147    -0.000000     0.000006  -179.564141
	   78 D(8,9,1,18)     =   -179.458507     0.000000     0.001030  -179.457477
	   79 D(9,8,7,19)     =    179.648577    -0.000000    -0.000387   179.648190
	   80 D(10,9,1,18)    =      0.400987     0.000000     0.000814     0.401801
	   81 D(10,9,8,17)    =      0.212716     0.000000     0.000364     0.213080
	   82 D(11,14,15,16)  =   -179.342178    -0.000000    -0.000717  -179.342895
	   83 D(12,11,14,15)  =   -133.182003    -0.000000     0.000474  -133.181528
	   84 D(13,11,14,15)  =    -12.235202    -0.000000     0.000511   -12.234690
	   85 D(17,8,7,19)    =     -0.119804    -0.000000    -0.000758    -0.120562
	   86 R(11,18)        =      3.535029    -0.000000    -0.000003     3.535026
	 ---------------------------------------------------------------------------
	Successfully symmetrized geometry.

  ==> Convergence Check <==

  Measures of convergence in internal coordinates in au.
  Criteria marked as inactive (o), active & met (*), and active & unmet ( ).
  ---------------------------------------------------------------------------------------------
   Step     Total Energy     Delta E     MAX Force     RMS Force      MAX Disp      RMS Disp   
  ---------------------------------------------------------------------------------------------
    Convergence Criteria             o    1.50e-05 *    1.00e-05 *    6.00e-05 *    4.00e-05 *
  ---------------------------------------------------------------------------------------------
     21   -1908.87490607   -4.10e-09 o    1.22e-06 *    2.40e-07 *    3.11e-05 *    9.11e-06 *  ~
  ---------------------------------------------------------------------------------------------


  **** Optimization is complete! (in 21 steps) ****

  ==> Optimization Summary <==

  Measures of convergence in internal coordinates in au.
  --------------------------------------------------------------------------------------------------------------- ~
   Step         Total Energy             Delta E       MAX Force       RMS Force        MAX Disp        RMS Disp  ~
  --------------------------------------------------------------------------------------------------------------- ~
      1   -1908.874300877291  -1908.874300877291      0.01124646      0.00216192      0.16575869      0.03156862  ~
      2   -1908.875224594973     -0.000923717682      0.00871104      0.00169458      0.15470163      0.03599347  ~
      3   -1908.874908788454      0.000315806519      0.01644348      0.00223556      0.11608848      0.02376149  ~
      4   -1908.874862439703      0.000046348752      0.00291586      0.00070829      0.23125856      0.05351087  ~
      5   -1908.873999517161      0.000862922541      0.02673341      0.00388831      0.03610996      0.00781389  ~
      6   -1908.874845298157     -0.000845780996      0.00413095      0.00071567      0.03075295      0.00637653  ~
      7   -1908.874897790638     -0.000052492481      0.00090832      0.00018940      0.02764407      0.00672062  ~
      8   -1908.874897804672     -0.000000014034      0.00102326      0.00018915      0.02332976      0.00613730  ~
      9   -1908.874904594332     -0.000006789660      0.00062697      0.00009228      0.00445756      0.00110324  ~
     10   -1908.874905588057     -0.000000993725      0.00014982      0.00002698      0.00699418      0.00143462  ~
     11   -1908.874906044251     -0.000000456194      0.00014645      0.00001876      0.00378335      0.00081203  ~
     12   -1908.874906057773     -0.000000013522      0.00005867      0.00001324      0.00423164      0.00120437  ~
     13   -1908.874906054663      0.000000003110      0.00004087      0.00001045      0.00107007      0.00031951  ~
     14   -1908.874906060732     -0.000000006069      0.00002166      0.00000512      0.00029889      0.00008559  ~
     15   -1908.874906071766     -0.000000011034      0.00000721      0.00000168      0.00059475      0.00015692  ~
     16   -1908.874906057226      0.000000014540      0.00000683      0.00000113      0.00026864      0.00007140  ~
     17   -1908.874906066212     -0.000000008986      0.00000620      0.00000100      0.00011193      0.00003287  ~
     18   -1908.874906069660     -0.000000003448      0.00000373      0.00000064      0.00009423      0.00002175  ~
     19   -1908.874906067621      0.000000002040      0.00000206      0.00000050      0.00008801      0.00002314  ~
     20   -1908.874906065390      0.000000002231      0.00000121      0.00000032      0.00008181      0.00002199  ~
     21   -1908.874906069486     -0.000000004096      0.00000122      0.00000024      0.00003108      0.00000911  ~
  --------------------------------------------------------------------------------------------------------------- ~

	Writing optimization data to binary file.
	Final energy is  -1908.8749060694863
	Final (previous) structure:
	Cartesian Geometry (in Angstrom)
	    C    -0.2758014392  -1.2181874447   0.2252181807
	    O    -1.0912536127   0.7269580336   1.3546395959
	    C    -0.2268299353   0.1436036235   0.4906342786
	    C     0.7542200833   0.9124385542  -0.1066472960
	    H     0.7997330375   1.9608950839   0.1157997012
	    O    -3.5990452815   1.2306094049   2.7950178241
	    C     1.6785805647   0.3441309668  -0.9652747467
	    C     1.6226031594  -1.0157729019  -1.2305896166
	    C     0.6450893093  -1.7904992342  -0.6296373885
	    H     0.6059429494  -2.8429283378  -0.8290861141
	    C    -2.2879018504   1.2196031718   0.7945720344
	    H    -2.8782596451   0.4133048656   0.3809913738
	    H    -2.0750173656   1.9544989523   0.0302836188
	    C    -3.0617622313   1.8460462536   1.9397623270
	    O    -3.0712331133   3.1708957316   1.8710375416
	    H    -3.5596551175   3.5087700473   2.6164210029
	   CL     2.7476964475  -1.7908806572  -2.2943263157
	   CL    -1.4777834041  -2.2167470657   0.9724356360
	   CL     2.8803386627   1.3664398551  -1.6764769247
	Saving final (previous) structure.
			--------------------------
			 OPTKING Finished Execution 
			--------------------------

    Final optimized geometry and variables:
    Molecular point group: c1
    Full point group: C1

    Geometry (in Angstrom), charge = 0, multiplicity = 1:

    C           -0.275801439181    -1.218187444686     0.225218180745
    O           -1.091253612687     0.726958033621     1.354639595894
    C           -0.226829935345     0.143603623541     0.490634278571
    C            0.754220083251     0.912438554219    -0.106647296036
    H            0.799733037470     1.960895083855     0.115799701218
    O           -3.599045281549     1.230609404928     2.795017824142
    C            1.678580564739     0.344130966820    -0.965274746697
    C            1.622603159449    -1.015772901875    -1.230589616585
    C            0.645089309323    -1.790499234232    -0.629637388530
    H            0.605942949360    -2.842928337832    -0.829086114090
    C           -2.287901850412     1.219603171765     0.794572034357
    H           -2.878259645135     0.413304865566     0.380991373793
    H           -2.075017365582     1.954498952338     0.030283618770
    C           -3.061762231350     1.846046253567     1.939762326970
    O           -3.071233113258     3.170895731567     1.871037541582
    H           -3.559655117550     3.508770047282     2.616421002930
    CL           2.747696447464    -1.790880657248    -2.294326315746
    CL          -1.477783404150    -2.216747065697     0.972435635967
    CL           2.880338662671     1.366439855086    -1.676476924682

	Cleaning optimization helper files.

*** Psi4 exiting successfully. Buy a developer a beer!
