
    -----------------------------------------------------------------------
          Psi4: An Open-Source Ab Initio Electronic Structure Package
                               Psi4 1.1a2.dev170 

                         Git: Rev {master} e4fcd91 dirty


    J. M. Turney, A. C. Simmonett, R. M. Parrish, E. G. Hohenstein,
    F. A. Evangelista, J. T. Fermann, B. J. Mintz, L. A. Burns, J. J. Wilke,
    M. L. Abrams, N. J. Russ, M. L. Leininger, C. L. Janssen, E. T. Seidl,
    W. D. Allen, H. F. Schaefer, R. A. King, E. F. Valeev, C. D. Sherrill,
    and T. D. Crawford, WIREs Comput. Mol. Sci. 2, 556-565 (2012)
    (doi: 10.1002/wcms.93)


                         Additional Contributions by
    A. E. DePrince, U. Bozkaya, A. Yu. Sokolov, D. G. A. Smith, R. Di Remigio,
    R. M. Richard, J. F. Gonthier, H. R. McAlexander, M. Saitow, and
    B. P. Pritchard
    -----------------------------------------------------------------------


    Psi4 started on: Thursday, 27 September 2018 12:32PM

    Process ID:  15114
    PSIDATADIR: /usr/local/software/miniconda2/envs/p4env/share/psi4
    Memory:     500.0 MiB
    Threads:    8
    
  ==> Input File <==

--------------------------------------------------------------------------
memory 20 Gb

molecule conf9 {
0 1
C          1.24300       -0.55300       -0.65700
O          1.24700        1.78400       -0.14900
C          0.57800        0.61900       -0.32200
C         -0.80200        0.60500       -0.23200
H         -1.31100        1.51600        0.01000
O          3.94500        1.74300        2.16300
C         -1.51600       -0.55900       -0.45500
C         -0.84400       -1.72900       -0.77500
C          0.53600       -1.71800       -0.87700
H          1.05700       -2.61900       -1.13400
C          1.85900        2.01700        1.08900
H          1.28700        1.47900        1.83200
H          1.85100        3.06500        1.35800
C          3.29100        1.53000        1.19700
O          3.72700        0.84000        0.15700
H          4.62200        0.56800        0.33800
Cl        -1.67800       -3.21900       -1.06200
Cl         2.97000       -0.56900       -0.82600
Cl        -3.24100       -0.50300       -0.32300
}
set globals {
  reference rhf
  g_convergence gau_tight
  basis 6-31G(d)
}
optimize('scf')
--------------------------------------------------------------------------

  Memory set to  20.000 GiB by Python script.
gradient() will perform analytic gradient computation.

*** tstart() called on dakota
*** at Thu Sep 27 12:32:04 2018


         ---------------------------------------------------------
                                   SCF
            by Justin Turney, Rob Parrish, and Andy Simmonett
                              RHF Reference
                        8 Threads,  20000 MiB Core
         ---------------------------------------------------------

  ==> Geometry <==

    Molecular point group: c1
    Full point group: C1

    Geometry (in Angstrom), charge = 0, multiplicity = 1:

       Center              X                  Y                   Z               Mass       
    ------------   -----------------  -----------------  -----------------  -----------------
           C          0.714473009924    -0.263089157049    -0.450044248887    12.000000000000
           O          0.718473009924     2.073910842951     0.057955751113    15.994914619560
           C          0.049473009924     0.908910842951    -0.115044248887    12.000000000000
           C         -1.330526990076     0.894910842951    -0.025044248887    12.000000000000
           H         -1.839526990076     1.805910842951     0.216955751113     1.007825032070
           O          3.416473009924     2.032910842951     2.369955751113    15.994914619560
           C         -2.044526990076    -0.269089157049    -0.248044248887    12.000000000000
           C         -1.372526990076    -1.439089157049    -0.568044248887    12.000000000000
           C          0.007473009924    -1.428089157049    -0.670044248887    12.000000000000
           H          0.528473009924    -2.329089157049    -0.927044248887     1.007825032070
           C          1.330473009924     2.306910842951     1.295955751113    12.000000000000
           H          0.758473009924     1.768910842951     2.038955751113     1.007825032070
           H          1.322473009924     3.354910842951     1.564955751113     1.007825032070
           C          2.762473009924     1.819910842951     1.403955751113    12.000000000000
           O          3.198473009924     1.129910842951     0.363955751113    15.994914619560
           H          4.093473009924     0.857910842951     0.544955751113     1.007825032070
          CL         -2.206526990076    -2.929089157049    -0.855044248887    34.968852682000
          CL          2.441473009924    -0.279089157049    -0.619044248887    34.968852682000
          CL         -3.769526990076    -0.213089157049    -0.116044248887    34.968852682000

  Running in c1 symmetry.

  Rotational constants: A =      0.03340  B =      0.00896  C =      0.00746 [cm^-1]
  Rotational constants: A =   1001.44223  B =    268.50128  C =    223.58885 [MHz]
  Nuclear repulsion = 1221.350775521092373

  Charge       = 0
  Multiplicity = 1
  Electrons    = 128
  Nalpha       = 64
  Nbeta        = 64

  ==> Algorithm <==

  SCF Algorithm Type is DF.
  DIIS enabled.
  MOM disabled.
  Fractional occupation disabled.
  Guess Type is SAD.
  Energy threshold   = 1.00e-08
  Density threshold  = 1.00e-08
  Integral threshold = 0.00e+00

  ==> Primary Basis <==

  Basis Set: file /usr/local/software/miniconda2/envs/p4env/share/psi4/basis/6-31g_d_.gbs
    Number of shells: 100
    Number of basis function: 232
    Number of Cartesian functions: 232
    Spherical Harmonics?: false
    Max angular momentum: 2

  ==> Pre-Iterations <==

   -------------------------------------------------------
    Irrep   Nso     Nmo     Nalpha   Nbeta   Ndocc  Nsocc
   -------------------------------------------------------
     A        232     232       0       0       0       0
   -------------------------------------------------------
    Total     232     232      64      64      64       0
   -------------------------------------------------------

  ==> Integral Setup <==

  ==> DFJK: Density-Fitted J/K Matrices <==

    J tasked:                  Yes
    K tasked:                  Yes
    wK tasked:                  No
    OpenMP threads:              8
    Integrals threads:           8
    Memory (MB):             14305
    Algorithm:                Core
    Integral Cache:           NONE
    Schwarz Cutoff:          1E-12
    Fitting Condition:       1E-12

   => Auxiliary Basis Set <=

  Basis Set: file /usr/local/software/miniconda2/envs/p4env/share/psi4/basis/cc-pvdz-jkfit.gbs
    Number of shells: 417
    Number of basis function: 1406
    Number of Cartesian functions: 1406
    Spherical Harmonics?: false
    Max angular momentum: 3

  Minimum eigenvalue in the overlap matrix is 3.6677086129E-04.
  Using Symmetric Orthogonalization.

  SCF Guess: Superposition of Atomic Densities via on-the-fly atomic UHF.

  ==> Iterations <==

                           Total Energy        Delta E     RMS |[F,P]|

   @DF-RHF iter   0: -1914.78612156705958   -1.91479e+03   2.85328e-02 
   @DF-RHF iter   1: -1908.29890195018970    6.48722e+00   3.27545e-03 
   @DF-RHF iter   2: -1908.60538166893048   -3.06480e-01   1.87701e-03 DIIS
   @DF-RHF iter   3: -1908.68757326718492   -8.21916e-02   5.27478e-04 DIIS
   @DF-RHF iter   4: -1908.70113894277711   -1.35657e-02   1.69675e-04 DIIS
   @DF-RHF iter   5: -1908.70252833309269   -1.38939e-03   6.79231e-05 DIIS
   @DF-RHF iter   6: -1908.70280555920908   -2.77226e-04   2.86302e-05 DIIS
   @DF-RHF iter   7: -1908.70286336349682   -5.78043e-05   9.52714e-06 DIIS
   @DF-RHF iter   8: -1908.70287140827463   -8.04478e-06   4.16158e-06 DIIS
   @DF-RHF iter   9: -1908.70287303357873   -1.62530e-06   1.98916e-06 DIIS
   @DF-RHF iter  10: -1908.70287342518054   -3.91602e-07   7.38034e-07 DIIS
   @DF-RHF iter  11: -1908.70287348160969   -5.64291e-08   2.61743e-07 DIIS
   @DF-RHF iter  12: -1908.70287348727197   -5.66229e-09   1.04193e-07 DIIS
   @DF-RHF iter  13: -1908.70287348808802   -8.16044e-10   3.96939e-08 DIIS
   @DF-RHF iter  14: -1908.70287348825241   -1.64391e-10   1.49352e-08 DIIS
   @DF-RHF iter  15: -1908.70287348826400   -1.15961e-11   5.93708e-09 DIIS

  ==> Post-Iterations <==

    Orbital Energies (a.u.)
    -----------------------

    Doubly Occupied:                                                      

       1A   -104.845264     2A   -104.843684     3A   -104.807726  
       4A    -20.626556     5A    -20.620066     6A    -20.570899  
       7A    -11.403998     8A    -11.334856     9A    -11.333289  
      10A    -11.329939    11A    -11.329475    12A    -11.324154  
      13A    -11.276258    14A    -11.274658    15A    -10.578538  
      16A    -10.576928    17A    -10.548120    18A     -8.047983  
      19A     -8.046373    20A     -8.044458    21A     -8.044443  
      22A     -8.042844    23A     -8.042840    24A     -8.016413  
      25A     -8.014097    26A     -8.012246    27A     -1.519572  
      28A     -1.452449    29A     -1.402944    30A     -1.240682  
      31A     -1.180490    32A     -1.151887    33A     -1.110893  
      34A     -1.058130    35A     -1.018077    36A     -0.988610  
      37A     -0.891591    38A     -0.865969    39A     -0.836907  
      40A     -0.771697    41A     -0.746282    42A     -0.727478  
      43A     -0.716976    44A     -0.694687    45A     -0.664815  
      46A     -0.658760    47A     -0.645349    48A     -0.637476  
      49A     -0.596295    50A     -0.595354    51A     -0.578417  
      52A     -0.560189    53A     -0.557187    54A     -0.516805  
      55A     -0.515038    56A     -0.500827    57A     -0.494717  
      58A     -0.482753    59A     -0.462974    60A     -0.457432  
      61A     -0.445588    62A     -0.366650    63A     -0.354442  
      64A     -0.324846  

    Virtual:                                                              

      65A      0.098238    66A      0.107389    67A      0.150488  
      68A      0.167639    69A      0.193680    70A      0.223524  
      71A      0.237486    72A      0.245393    73A      0.282352  
      74A      0.293382    75A      0.307968    76A      0.314011  
      77A      0.332427    78A      0.386539    79A      0.408089  
      80A      0.423969    81A      0.440515    82A      0.456154  
      83A      0.473939    84A      0.489372    85A      0.527118  
      86A      0.545879    87A      0.552291    88A      0.589236  
      89A      0.597643    90A      0.599868    91A      0.605794  
      92A      0.623012    93A      0.635882    94A      0.639134  
      95A      0.654108    96A      0.664724    97A      0.673594  
      98A      0.694065    99A      0.708556   100A      0.730367  
     101A      0.738904   102A      0.754008   103A      0.773797  
     104A      0.786050   105A      0.792971   106A      0.819115  
     107A      0.825590   108A      0.844548   109A      0.846621  
     110A      0.884199   111A      0.893648   112A      0.910797  
     113A      0.930942   114A      0.948987   115A      0.952212  
     116A      0.975717   117A      0.986023   118A      1.006243  
     119A      1.025833   120A      1.029388   121A      1.061813  
     122A      1.067824   123A      1.077910   124A      1.092927  
     125A      1.102775   126A      1.112272   127A      1.122305  
     128A      1.127567   129A      1.133062   130A      1.141909  
     131A      1.143081   132A      1.158708   133A      1.174739  
     134A      1.194372   135A      1.208361   136A      1.218580  
     137A      1.241922   138A      1.264012   139A      1.265483  
     140A      1.285371   141A      1.291459   142A      1.312563  
     143A      1.320891   144A      1.339662   145A      1.356213  
     146A      1.371092   147A      1.399078   148A      1.412552  
     149A      1.427496   150A      1.442625   151A      1.452453  
     152A      1.475564   153A      1.552963   154A      1.567948  
     155A      1.599216   156A      1.613253   157A      1.647313  
     158A      1.665274   159A      1.683056   160A      1.692608  
     161A      1.751505   162A      1.770782   163A      1.775063  
     164A      1.794611   165A      1.801025   166A      1.825990  
     167A      1.830625   168A      1.861648   169A      1.902305  
     170A      1.974070   171A      2.028580   172A      2.036402  
     173A      2.062148   174A      2.067954   175A      2.081850  
     176A      2.114074   177A      2.128445   178A      2.183203  
     179A      2.187600   180A      2.219870   181A      2.231017  
     182A      2.266369   183A      2.288155   184A      2.329315  
     185A      2.337574   186A      2.372307   187A      2.388416  
     188A      2.409163   189A      2.421597   190A      2.430059  
     191A      2.435355   192A      2.511423   193A      2.533965  
     194A      2.572463   195A      2.594308   196A      2.600133  
     197A      2.649473   198A      2.657420   199A      2.760967  
     200A      2.814650   201A      2.836586   202A      2.884818  
     203A      2.894747   204A      2.976471   205A      3.001251  
     206A      3.021737   207A      3.070324   208A      3.078341  
     209A      3.092408   210A      3.112004   211A      3.154944  
     212A      3.208176   213A      3.265935   214A      3.370612  
     215A      3.399616   216A      3.490110   217A      3.511197  
     218A      3.714581   219A      4.288255   220A      4.429890  
     221A      4.461001   222A      4.484324   223A      4.523014  
     224A      4.612482   225A      4.642387   226A      4.670778  
     227A      4.744242   228A      4.754047   229A      4.831979  
     230A      4.884570   231A      4.980053   232A      5.151315  

    Final Occupation by Irrep:
              A 
    DOCC [    64 ]

  Energy converged.

  @DF-RHF Final Energy: -1908.70287348826400

   => Energetics <=

    Nuclear Repulsion Energy =           1221.3507755210923733
    One-Electron Energy =               -5060.6526167141000769
    Two-Electron Energy =                1930.5989677047439272
    DFT Exchange-Correlation Energy =       0.0000000000000000
    Empirical Dispersion Energy =           0.0000000000000000
    PCM Polarization Energy =               0.0000000000000000
    EFP Energy =                            0.0000000000000000
    Total Energy =                      -1908.7028734882640038

    Alert: EFP and PCM quantities not currently incorporated into SCF psivars.

Properties will be evaluated at   0.000000,   0.000000,   0.000000 Bohr

Properties computed using the SCF density matrix

  Nuclear Dipole Moment: (a.u.)
     X:     7.8302      Y:     8.2743      Z:     4.6928

  Electronic Dipole Moment: (a.u.)
     X:    -7.4872      Y:    -7.8928      Z:    -4.4788

  Dipole Moment: (a.u.)
     X:     0.3429      Y:     0.3815      Z:     0.2140     Total:     0.5558

  Dipole Moment: (Debye)
     X:     0.8716      Y:     0.9697      Z:     0.5439     Total:     1.4127


*** tstop() called on dakota at Thu Sep 27 12:32:33 2018
Module time:
	user time   =     110.13 seconds =       1.84 minutes
	system time =       2.24 seconds =       0.04 minutes
	total time  =         29 seconds =       0.48 minutes
Total time:
	user time   =     110.13 seconds =       1.84 minutes
	system time =       2.24 seconds =       0.04 minutes
	total time  =         29 seconds =       0.48 minutes

*** tstart() called on dakota
*** at Thu Sep 27 12:32:33 2018


         ------------------------------------------------------------
                                   SCF GRAD                          
                          Rob Parrish, Justin Turney,                
                       Andy Simmonett, and Alex Sokolov              
         ------------------------------------------------------------

  ==> Geometry <==

    Molecular point group: c1
    Full point group: C1

    Geometry (in Angstrom), charge = 0, multiplicity = 1:

       Center              X                  Y                   Z               Mass       
    ------------   -----------------  -----------------  -----------------  -----------------
           C          0.714473009924    -0.263089157049    -0.450044248887    12.000000000000
           O          0.718473009924     2.073910842951     0.057955751113    15.994914619560
           C          0.049473009924     0.908910842951    -0.115044248887    12.000000000000
           C         -1.330526990076     0.894910842951    -0.025044248887    12.000000000000
           H         -1.839526990076     1.805910842951     0.216955751113     1.007825032070
           O          3.416473009924     2.032910842951     2.369955751113    15.994914619560
           C         -2.044526990076    -0.269089157049    -0.248044248887    12.000000000000
           C         -1.372526990076    -1.439089157049    -0.568044248887    12.000000000000
           C          0.007473009924    -1.428089157049    -0.670044248887    12.000000000000
           H          0.528473009924    -2.329089157049    -0.927044248887     1.007825032070
           C          1.330473009924     2.306910842951     1.295955751113    12.000000000000
           H          0.758473009924     1.768910842951     2.038955751113     1.007825032070
           H          1.322473009924     3.354910842951     1.564955751113     1.007825032070
           C          2.762473009924     1.819910842951     1.403955751113    12.000000000000
           O          3.198473009924     1.129910842951     0.363955751113    15.994914619560
           H          4.093473009924     0.857910842951     0.544955751113     1.007825032070
          CL         -2.206526990076    -2.929089157049    -0.855044248887    34.968852682000
          CL          2.441473009924    -0.279089157049    -0.619044248887    34.968852682000
          CL         -3.769526990076    -0.213089157049    -0.116044248887    34.968852682000

  Nuclear repulsion = 1221.350775521092373

  ==> Basis Set <==

  Basis Set: file /usr/local/software/miniconda2/envs/p4env/share/psi4/basis/6-31g_d_.gbs
    Number of shells: 100
    Number of basis function: 232
    Number of Cartesian functions: 232
    Spherical Harmonics?: false
    Max angular momentum: 2

  ==> DFJKGrad: Density-Fitted SCF Gradients <==

    Gradient:                    1
    J tasked:                  Yes
    K tasked:                  Yes
    wK tasked:                  No
    OpenMP threads:              8
    Integrals threads:           8
    Memory (MB):             14305
    Schwarz Cutoff:          0E+00
    Fitting Condition:       1E-12

   => Auxiliary Basis Set <=

  Basis Set: file /usr/local/software/miniconda2/envs/p4env/share/psi4/basis/cc-pvdz-jkfit.gbs
    Number of shells: 417
    Number of basis function: 1406
    Number of Cartesian functions: 1406
    Spherical Harmonics?: false
    Max angular momentum: 3


  -Total Gradient:
     Atom            X                  Y                   Z
    ------   -----------------  -----------------  -----------------
       1       -0.009553713758     0.007483612110     0.005819154949
       2       -0.004860902870    -0.012940722873     0.004253543094
       3       -0.000376915078     0.004757879875     0.002849567657
       4       -0.002519373022    -0.000882408584    -0.001419444229
       5        0.001283803718    -0.000709932878     0.000165827203
       6        0.001001686999    -0.000177565850    -0.008683758266
       7        0.000774595887    -0.000734351489    -0.000321643231
       8       -0.000453932850     0.000242653366    -0.000716575458
       9        0.005274379954     0.001394798174    -0.001450108248
      10        0.000060967524    -0.001313309941     0.000283697568
      11        0.005827470278     0.016981011648    -0.004919678211
      12       -0.002969954762    -0.002594505684    -0.008487946211
      13        0.002149175622     0.000178346011     0.008397830794
      14       -0.011647964363    -0.012085249247    -0.001148722433
      15       -0.097067141504    -0.200731770483    -0.136734773436
      16       -0.006387292995    -0.002354209071    -0.003817270433
      17        0.000429675047     0.000114517670     0.000100002829
      18        0.118528711597     0.203506505233     0.145878212025
      19        0.000506724391    -0.000135298051    -0.000047915967


*** tstop() called on dakota at Thu Sep 27 12:32:47 2018
Module time:
	user time   =      50.82 seconds =       0.85 minutes
	system time =       0.96 seconds =       0.02 minutes
	total time  =         14 seconds =       0.23 minutes
Total time:
	user time   =     160.95 seconds =       2.68 minutes
	system time =       3.20 seconds =       0.05 minutes
	total time  =         43 seconds =       0.72 minutes

			-----------------------------------------
			 OPTKING 2.0: for geometry optimizations 
			  - R.A. King,  Bethel University        
			-----------------------------------------

	Internal coordinates to be generated automatically.
	Detected frag 1 with atoms:  1 2 3 4 5 6 7 8 9 10 11 12 13 14 15 16 17 18 19
	---Fragment 1 Bond Connectivity---
	 1 : 3 9 18
	 2 : 3 11
	 3 : 1 2 4
	 4 : 3 5 7
	 5 : 4
	 6 : 14
	 7 : 4 8 19
	 8 : 7 9 17
	 9 : 1 8 10
	 10 : 9
	 11 : 2 12 13 14
	 12 : 11
	 13 : 11
	 14 : 6 11 15
	 15 : 14 16 18
	 16 : 15
	 17 : 8
	 18 : 1 15
	 19 : 7

	---Fragment 1 Geometry and Gradient---
	 C           1.3501583181       -0.4971664554       -0.8504603781
	 O           1.3577172226        3.9191235172        0.1095204974
	 C           0.0934904397        1.7175925724       -0.2174021236
	 C          -2.5143316237        1.6911364065       -0.0473267716
	 H          -3.4762022253        3.4126769136        0.4099869526
	 O           6.4561983292        3.8416447458        4.4785673167
	 C          -3.8635960825       -0.5085048122       -0.4687356992
	 C          -2.5937001212       -2.7194843876       -1.0734480618
	 C           0.0141219421       -2.6986974002       -1.2662001273
	 H           0.9986692574       -4.4013406459       -1.7518597435
	 C           2.5142296160        4.3594297062        2.4490014499
	 H           1.4333062679        3.3427570467        3.8530679667
	 H           2.4991118069        6.3398626934        2.9573377797
	 C           5.2203174382        3.4391330794        2.6530918723
	 O           6.0442380322        2.1352220478        0.6877766941
	 H           7.7355429211        1.6212165396        1.0298171241
	 CL         -4.1697317161       -5.5351763256       -1.6157994619
	 CL          4.6137153496       -0.5274020735       -1.1698240945
	 CL         -7.1233736618       -0.4026801487       -0.2192918497
	            -0.0095537138        0.0074836121        0.0058191549
	            -0.0048609029       -0.0129407229        0.0042535431
	            -0.0003769151        0.0047578799        0.0028495677
	            -0.0025193730       -0.0008824086       -0.0014194442
	             0.0012838037       -0.0007099329        0.0001658272
	             0.0010016870       -0.0001775659       -0.0086837583
	             0.0007745959       -0.0007343515       -0.0003216432
	            -0.0004539329        0.0002426534       -0.0007165755
	             0.0052743800        0.0013947982       -0.0014501082
	             0.0000609675       -0.0013133099        0.0002836976
	             0.0058274703        0.0169810116       -0.0049196782
	            -0.0029699548       -0.0025945057       -0.0084879462
	             0.0021491756        0.0001783460        0.0083978308
	            -0.0116479644       -0.0120852492       -0.0011487224
	            -0.0970671415       -0.2007317705       -0.1367347734
	            -0.0063872930       -0.0023542091       -0.0038172704
	             0.0004296750        0.0001145177        0.0001000028
	             0.1185287116        0.2035065052        0.1458782120
	             0.0005067244       -0.0001352981       -0.0000479160

	Previous optimization step data not found.  Starting new optimization.

	---Fragment 1 Intrafragment Coordinates---
	 - Coordinate -           - BOHR/RAD -       - ANG/DEG -
	 R(1,3)           =         2.623954	       1.388537
	 R(1,9)           =         2.608557	       1.380389
	 R(1,18)          =         3.279285	       1.735323
	 R(2,3)           =         2.559665	       1.354517
	 R(2,11)          =         2.646613	       1.400527
	 R(3,4)           =         2.613496	       1.383003
	 R(4,5)           =         2.024360	       1.071245
	 R(4,7)           =         2.614674	       1.383626
	 R(6,14)          =         2.240932	       1.185850
	 R(7,8)           =         2.620447	       1.386681
	 R(7,19)          =         3.271020	       1.730949
	 R(8,9)           =         2.615018	       1.383808
	 R(8,17)          =         3.272024	       1.731481
	 R(9,10)          =         2.025881	       1.072050
	 R(11,12)         =         2.042895	       1.081054
	 R(11,13)         =         2.044688	       1.082002
	 R(11,14)         =         2.865573	       1.516396
	 R(14,15)         =         2.498298	       1.322042
	 R(15,16)         =         1.800474	       0.952770
	 R(15,18)         =         3.547766	       1.877397
	 B(1,3,2)         =         2.117919	     121.347809
	 B(1,3,4)         =         2.077203	     119.014943
	 B(1,9,8)         =         2.101020	     120.379572
	 B(1,9,10)        =         2.092785	     119.907723
	 B(1,18,15)       =         1.921301	     110.082444
	 B(2,3,4)         =         2.086591	     119.552833
	 B(2,11,12)       =         1.868713	     107.069343
	 B(2,11,13)       =         1.958074	     112.189380
	 B(2,11,14)       =         2.006651	     114.972607
	 B(3,1,9)         =         2.100771	     120.365333
	 B(3,1,18)        =         2.103545	     120.524235
	 B(3,2,11)        =         2.062142	     118.152048
	 B(3,4,5)         =         2.071689	     118.699041
	 B(3,4,7)         =         2.109406	     120.860049
	 B(4,7,8)         =         2.090853	     119.797040
	 B(4,7,19)        =         2.065481	     118.343352
	 B(5,4,7)         =         2.102080	     120.440320
	 B(6,14,11)       =         2.118983	     121.408799
	 B(6,14,15)       =         2.156377	     123.551288
	 B(7,8,9)         =         2.086997	     119.576128
	 B(7,8,17)        =         2.130456	     122.066149
	 B(8,7,19)        =         2.126851	     121.859608
	 B(8,9,10)        =         2.089364	     119.711757
	 B(9,1,18)        =         2.078778	     119.105230
	 B(9,8,17)        =         2.065722	     118.357134
	 B(11,14,15)      =         2.007581	     115.025935
	 B(12,11,13)      =         1.883089	     107.893060
	 B(12,11,14)      =         1.865951	     106.911116
	 B(13,11,14)      =         1.875845	     107.477986
	 B(14,15,16)      =         1.885308	     108.020167
	 B(14,15,18)      =         2.305841	     132.114946
	 B(16,15,18)      =         1.837944	     105.306417
	 D(1,3,2,11)      =        -1.436199	     -82.288134
	 D(1,3,4,5)       =        -3.123179	    -178.944990
	 D(1,3,4,7)       =         0.013558	       0.776845
	 D(1,9,8,7)       =         0.004574	       0.262065
	 D(1,9,8,17)      =         3.141399	     179.988898
	 D(1,18,15,14)    =         0.406567	      23.294559
	 D(1,18,15,16)    =         2.724842	     156.121946
	 D(2,3,1,9)       =        -3.099560	    -177.591685
	 D(2,3,1,18)      =         0.027423	       1.571212
	 D(2,3,4,5)       =        -0.039097	      -2.240110
	 D(2,3,4,7)       =         3.097640	     177.481724
	 D(2,11,14,6)     =         3.057290	     175.169824
	 D(2,11,14,15)    =        -0.107232	      -6.143949
	 D(3,1,9,8)       =         0.007601	       0.435496
	 D(3,1,9,10)      =        -3.140189	    -179.919594
	 D(3,1,18,15)     =         0.412798	      23.651564
	 D(3,2,11,12)     =        -0.499026	     -28.592096
	 D(3,2,11,13)     =        -2.561773	    -146.778758
	 D(3,2,11,14)     =         1.570918	      90.006953
	 D(3,4,7,8)       =        -0.001562	      -0.089479
	 D(3,4,7,19)      =         3.140080	     179.913309
	 D(4,3,1,9)       =        -0.016548	      -0.948131
	 D(4,3,1,18)      =         3.110434	     178.214766
	 D(4,3,2,11)      =         1.764284	     101.086050
	 D(4,7,8,9)       =        -0.007580	      -0.434312
	 D(4,7,8,17)      =         3.138963	     179.849353
	 D(5,4,7,8)       =         3.135092	     179.627517
	 D(5,4,7,19)      =        -0.006452	      -0.369694
	 D(6,14,11,12)    =        -1.154406	     -66.142615
	 D(6,14,11,13)    =         0.863548	      49.477646
	 D(6,14,15,16)    =        -0.000205	      -0.011729
	 D(6,14,15,18)    =         2.302533	     131.925408
	 D(7,8,9,10)      =        -3.130833	    -179.383541
	 D(8,9,1,18)      =        -3.119588	    -178.739199
	 D(9,1,18,15)     =        -2.743223	    -157.175087
	 D(9,8,7,19)      =         3.133962	     179.562798
	 D(10,9,1,18)     =         0.015808	       0.905711
	 D(10,9,8,17)     =         0.005992	       0.343293
	 D(11,14,15,16)   =        -3.118315	    -178.666298
	 D(11,14,15,18)   =        -0.815578	     -46.729160
	 D(12,11,14,15)   =         1.964257	     112.543612
	 D(13,11,14,15)   =        -2.300974	    -131.836126
	 D(17,8,7,19)     =        -0.002680	      -0.153537

	Current energy   :     -1908.7028734883

	Generating empirical Hessian (Schlegel '84) for each fragment.
	Taking RFO optimization step.
	Going to follow RFO solution 1.
	Using RFO vector 1.

	Determining step-restricting scale parameter for RS-RFO.
	Maximum step size allowed    0.50000

	 Iter      |step|        alpha        rfo_root  
	------------------------------------------------
	    0     0.69573       1.00000           1
	    1     0.56049       1.85127           1
	    2     0.50890       2.39096           1
	    3     0.50024       2.49979           1
	    4     0.50000       2.50295           1
	------------------------------------------------
	Norm of target step-size    0.50000
	Projected energy change by RFO approximation:        -0.1073048422

	Back-transformation to cartesian coordinates...
	Could not converge backtransformation.
	Using first guess instead.

	--- Internal Coordinate Step in ANG or DEG, aJ/ANG or AJ/DEG ---
	 ---------------------------------------------------------------------------
	   Coordinate                Previous        Force       Change         New 
	   ----------                --------       ------       ------       ------
	    1 R(1,3)          =      1.388537     0.096850     0.008568     1.397104
	    2 R(1,9)          =      1.380389     0.028548     0.003050     1.383439
	    3 R(1,18)         =      1.735323    -0.082900    -0.007084     1.728239
	    4 R(2,3)          =      1.354517     0.146134     0.010738     1.365255
	    5 R(2,11)         =      1.400527     0.107343     0.008805     1.409333
	    6 R(3,4)          =      1.383003     0.007038     0.000995     1.383998
	    7 R(4,5)          =      1.071245     0.009691     0.001337     1.072582
	    8 R(4,7)          =      1.383626    -0.006496     0.000011     1.383637
	    9 R(6,14)         =      1.185850     0.053991     0.003539     1.189390
	   10 R(7,8)          =      1.386681    -0.011593    -0.000305     1.386376
	   11 R(7,19)         =      1.730949     0.004227     0.001326     1.732275
	   12 R(8,9)          =      1.383808    -0.005964     0.000178     1.383986
	   13 R(8,17)         =      1.731481     0.002654     0.001042     1.732523
	   14 R(9,10)         =      1.072050    -0.008777    -0.000166     1.071884
	   15 R(11,12)        =      1.081054     0.024478     0.002436     1.083489
	   16 R(11,13)        =      1.082002    -0.018493    -0.000255     1.081747
	   17 R(11,14)        =      1.516396     0.006755     0.003475     1.519871
	   18 R(14,15)        =      1.322042    -0.026623    -0.001259     1.320783
	   19 R(15,16)        =      0.952770     0.049870     0.004118     0.956888
	   20 R(15,18)        =      1.877397     2.194019     0.255406     2.132803
	   21 B(1,3,2)        =    121.347809     0.002044     2.537516   123.885325
	   22 B(1,3,4)        =    119.014943    -0.000412    -0.467617   118.547326
	   23 B(1,9,8)        =    120.379572     0.000171     0.221895   120.601467
	   24 B(1,9,10)       =    119.907723    -0.000130    -0.179205   119.728518
	   25 B(1,18,15)      =    110.082444    -0.001879    -2.419098   107.663347
	   26 B(2,3,4)        =    119.552833    -0.001626    -2.064930   117.487903
	   27 B(2,11,12)      =    107.069343     0.000061     0.385026   107.454369
	   28 B(2,11,13)      =    112.189380    -0.000787    -1.241364   110.948016
	   29 B(2,11,14)      =    114.972607     0.001320     1.605929   116.578537
	   30 B(3,1,9)        =    120.365333    -0.000126    -0.131850   120.233483
	   31 B(3,1,18)       =    120.524235    -0.000110    -0.145346   120.378890
	   32 B(3,2,11)       =    118.152048     0.000628     1.149281   119.301329
	   33 B(3,4,5)        =    118.699041    -0.000122    -0.133490   118.565551
	   34 B(3,4,7)        =    120.860049     0.000365     0.458986   121.319035
	   35 B(4,7,8)        =    119.797040     0.000021    -0.025173   119.771867
	   36 B(4,7,19)       =    118.343352    -0.000025    -0.009948   118.333404
	   37 B(5,4,7)        =    120.440320    -0.000243    -0.325080   120.115240
	   38 B(6,14,11)      =    121.408799     0.000208     0.330721   121.739521
	   39 B(6,14,15)      =    123.551288     0.000990     1.273000   124.824289
	   40 B(7,8,9)        =    119.576128    -0.000021    -0.060314   119.515815
	   41 B(7,8,17)       =    122.066149    -0.000028    -0.014295   122.051854
	   42 B(8,7,19)       =    121.859608     0.000004     0.035092   121.894700
	   43 B(8,9,10)       =    119.711757    -0.000042    -0.043636   119.668121
	   44 B(9,1,18)       =    119.105230     0.000236     0.276162   119.381392
	   45 B(9,8,17)       =    118.357134     0.000049     0.074075   118.431209
	   46 B(11,14,15)     =    115.025935    -0.001202    -1.610843   113.415092
	   47 B(12,11,13)     =    107.893060     0.000069     0.038684   107.931744
	   48 B(12,11,14)     =    106.911116    -0.000239    -0.176341   106.734775
	   49 B(13,11,14)     =    107.477986    -0.000451    -0.640105   106.837882
	   50 B(14,15,16)     =    108.020167    -0.000117    -0.049084   107.971083
	   51 B(14,15,18)     =    132.114946    -0.000569    -0.990171   131.124776
	   52 B(16,15,18)     =    105.306417     0.000791     1.309691   106.616108
	   53 D(1,3,2,11)     =    -82.288134    -0.000180    -1.531742   -83.819876
	   54 D(1,3,4,5)      =   -178.944990     0.000003     0.048838  -178.896152
	   55 D(1,3,4,7)      =      0.776845     0.000022     0.175410     0.952254
	   56 D(1,9,8,7)      =      0.262065     0.000003     0.033191     0.295256
	   57 D(1,9,8,17)     =    179.988898    -0.000010    -0.071028   179.917870
	   58 D(1,18,15,14)   =     23.294559     0.000011    -0.096701    23.197858
	   59 D(1,18,15,16)   =    156.121946     0.000073     0.547573   156.669519
	   60 D(2,3,1,9)      =   -177.591685    -0.000047    -0.282376  -177.874061
	   61 D(2,3,1,18)     =      1.571212    -0.000062    -0.359225     1.211987
	   62 D(2,3,4,5)      =     -2.240110     0.000044     0.230061    -2.010050
	   63 D(2,3,4,7)      =    177.481724     0.000064     0.356633   177.838357
	   64 D(2,11,14,6)    =    175.169824     0.000014     0.024518   175.194342
	   65 D(2,11,14,15)   =     -6.143949    -0.000020    -0.256373    -6.400322
	   66 D(3,1,9,8)      =      0.435496     0.000023     0.156785     0.592281
	   67 D(3,1,9,10)     =   -179.919594     0.000001     0.009610  -179.909984
	   68 D(3,1,18,15)    =     23.651564    -0.000103    -0.733458    22.918107
	   69 D(3,2,11,12)    =    -28.592096     0.000068     0.778587   -27.813509
	   70 D(3,2,11,13)    =   -146.778758     0.000142     1.193252  -145.585506
	   71 D(3,2,11,14)    =     90.006953     0.000191     1.836824    91.843777
	   72 D(3,4,7,8)      =     -0.089479     0.000002     0.008150    -0.081329
	   73 D(3,4,7,19)     =    179.913309    -0.000008    -0.055099   179.858211
	   74 D(4,3,1,9)      =     -0.948131    -0.000034    -0.253691    -1.201822
	   75 D(4,3,1,18)     =    178.214766    -0.000049    -0.330540   177.884226
	   76 D(4,3,2,11)     =    101.086050    -0.000202    -1.610783    99.475267
	   77 D(4,7,8,9)      =     -0.434312    -0.000016    -0.117199    -0.551511
	   78 D(4,7,8,17)     =    179.849353    -0.000002    -0.009310   179.840044
	   79 D(5,4,7,8)      =    179.627517     0.000022     0.137239   179.764756
	   80 D(5,4,7,19)     =     -0.369694     0.000012     0.073989    -0.295705
	   81 D(6,14,11,12)   =    -66.142615     0.000176     1.379878   -64.762737
	   82 D(6,14,11,13)   =     49.477646     0.000116     1.030418    50.508064
	   83 D(6,14,15,16)   =     -0.011729     0.000022     0.213010     0.201280
	   84 D(6,14,15,18)   =    131.925408     0.000152     1.299022   133.224430
	   85 D(7,8,9,10)     =   -179.383541     0.000024     0.180760  -179.202781
	   86 D(8,9,1,18)     =   -178.739199     0.000038     0.236334  -178.502865
	   87 D(9,1,18,15)    =   -157.175087    -0.000118    -0.813004  -157.988091
	   88 D(9,8,7,19)     =    179.562798    -0.000005    -0.051628   179.511170
	   89 D(10,9,1,18)    =      0.905711     0.000017     0.089159     0.994870
	   90 D(10,9,8,17)    =      0.343293     0.000011     0.076540     0.419833
	   91 D(11,14,15,16)  =   -178.666298     0.000060     0.519643  -178.146655
	   92 D(11,14,15,18)  =    -46.729160     0.000189     1.605655   -45.123505
	   93 D(12,11,14,15)  =    112.543612     0.000141     1.098987   113.642599
	   94 D(13,11,14,15)  =   -131.836126     0.000082     0.749527  -131.086600
	   95 D(17,8,7,19)    =     -0.153537     0.000008     0.056261    -0.097275
	 ---------------------------------------------------------------------------
	Successfully symmetrized geometry.

  ==> Convergence Check <==

  Measures of convergence in internal coordinates in au.
  Criteria marked as inactive (o), active & met (*), and active & unmet ( ).
  --------------------------------------------------------------------------------------------- ~
   Step     Total Energy     Delta E     MAX Force     RMS Force      MAX Disp      RMS Disp    ~
  --------------------------------------------------------------------------------------------- ~
    Convergence Criteria             o    1.50e-05 *    1.00e-05 *    6.00e-05 *    4.00e-05 *  ~
  --------------------------------------------------------------------------------------------- ~
      1   -1908.70287349   -1.91e+03 o    2.66e-01      2.82e-02      4.83e-01      5.13e-02    ~
  ---------------------------------------------------------------------------------------------

	Writing optimization data to binary file.
	Structure for next step:
	Cartesian Geometry (in Angstrom)
	    C     0.7078826202  -0.3340874306  -0.4970466929
	    O     0.7360294973   2.0401097290   0.0553089436
	    C     0.0779461988   0.8590937113  -0.1345555487
	    C    -1.3014885117   0.8713421149  -0.0229346099
	    H    -1.7867857411   1.7916352037   0.2377921738
	    O     3.4179638729   2.1467922185   2.4334085746
	    C    -2.0510502931  -0.2706240753  -0.2432109928
	    C    -1.4167763966  -1.4551751055  -0.5846381778
	    C    -0.0389136099  -1.4785305527  -0.7125649513
	    H     0.4528879283  -2.3899372576  -0.9889770927
	    C     1.3387290491   2.3011432484   1.3022385849
	    H     0.7827775537   1.7524808173   2.0531293346
	    H     1.2805189350   3.3531660679   1.5472605453
	    C     2.7954334214   1.8941885206   1.4519326737
	    O     3.2615287862   1.2211105590   0.4155018145
	    H     4.1685043368   0.9807347986   0.6032490550
	   CL    -2.2965873139  -2.9202327198  -0.8695478242
	   CL     2.4228689308  -0.3893481479  -0.7033914306
	   CL    -3.7724820757  -0.1685556837  -0.0787951081
			--------------------------
			 OPTKING Finished Execution 
			--------------------------

    Structure for next step:
    Molecular point group: c1
    Full point group: C1

    Geometry (in Angstrom), charge = 0, multiplicity = 1:

    C            0.718182386074    -0.330359964111    -0.492650203823
    O            0.746329263167     2.043837195557     0.059705432606
    C            0.088245964636     0.862821177809    -0.130159059690
    C           -1.291188745842     0.875069581469    -0.018538120837
    H           -1.776485975255     1.795362670264     0.242188662821
    O            3.428263638750     2.150519685026     2.437805063659
    C           -2.040750527243    -0.266896608723    -0.238814503770
    C           -1.406476630791    -1.451447638954    -0.580241688723
    C           -0.028613844026    -1.474803086189    -0.708168462266
    H            0.463187694180    -2.386209791038    -0.984580603675
    C            1.349028815004     2.304870714936     1.306635073976
    H            0.793077319588     1.756208283797     2.057525823621
    H            1.290818700873     3.356893534464     1.551657034290
    C            2.805733187281     1.897915987125     1.456329162775
    O            3.271828552013     1.224838025505     0.419898303572
    H            4.178804102612     0.984462265124     0.607645544032
    CL          -2.286287548043    -2.916505253216    -0.865151335171
    CL           2.433168696632    -0.385620681378    -0.698994941574
    CL          -3.762182309819    -0.164828217202    -0.074398619031

gradient() will perform analytic gradient computation.

*** tstart() called on dakota
*** at Thu Sep 27 12:32:47 2018


         ---------------------------------------------------------
                                   SCF
            by Justin Turney, Rob Parrish, and Andy Simmonett
                              RHF Reference
                        8 Threads,  20000 MiB Core
         ---------------------------------------------------------

  ==> Geometry <==

    Molecular point group: c1
    Full point group: C1

    Geometry (in Angstrom), charge = 0, multiplicity = 1:

       Center              X                  Y                   Z               Mass       
    ------------   -----------------  -----------------  -----------------  -----------------
           C          0.718182386074    -0.330359964111    -0.492650203823    12.000000000000
           O          0.746329263167     2.043837195557     0.059705432606    15.994914619560
           C          0.088245964636     0.862821177809    -0.130159059690    12.000000000000
           C         -1.291188745842     0.875069581469    -0.018538120837    12.000000000000
           H         -1.776485975255     1.795362670264     0.242188662821     1.007825032070
           O          3.428263638750     2.150519685026     2.437805063659    15.994914619560
           C         -2.040750527243    -0.266896608723    -0.238814503770    12.000000000000
           C         -1.406476630791    -1.451447638954    -0.580241688723    12.000000000000
           C         -0.028613844026    -1.474803086189    -0.708168462266    12.000000000000
           H          0.463187694180    -2.386209791038    -0.984580603675     1.007825032070
           C          1.349028815004     2.304870714936     1.306635073976    12.000000000000
           H          0.793077319588     1.756208283797     2.057525823621     1.007825032070
           H          1.290818700873     3.356893534464     1.551657034290     1.007825032070
           C          2.805733187281     1.897915987125     1.456329162775    12.000000000000
           O          3.271828552013     1.224838025505     0.419898303572    15.994914619560
           H          4.178804102612     0.984462265124     0.607645544032     1.007825032070
          CL         -2.286287548043    -2.916505253216    -0.865151335171    34.968852682000
          CL          2.433168696632    -0.385620681378    -0.698994941574    34.968852682000
          CL         -3.762182309819    -0.164828217202    -0.074398619031    34.968852682000

  Running in c1 symmetry.

  Rotational constants: A =      0.03239  B =      0.00880  C =      0.00730 [cm^-1]
  Rotational constants: A =    971.08511  B =    263.71090  C =    218.81162 [MHz]
  Nuclear repulsion = 1207.744714109267761

  Charge       = 0
  Multiplicity = 1
  Electrons    = 128
  Nalpha       = 64
  Nbeta        = 64

  ==> Algorithm <==

  SCF Algorithm Type is DF.
  DIIS enabled.
  MOM disabled.
  Fractional occupation disabled.
  Guess Type is READ.
  Energy threshold   = 1.00e-08
  Density threshold  = 1.00e-08
  Integral threshold = 0.00e+00

  ==> Primary Basis <==

  Basis Set: file /usr/local/software/miniconda2/envs/p4env/share/psi4/basis/6-31g_d_.gbs
    Number of shells: 100
    Number of basis function: 232
    Number of Cartesian functions: 232
    Spherical Harmonics?: false
    Max angular momentum: 2

  Reading orbitals from file 180, no projection.

  ==> Pre-Iterations <==

   -------------------------------------------------------
    Irrep   Nso     Nmo     Nalpha   Nbeta   Ndocc  Nsocc
   -------------------------------------------------------
     A        232     232       0       0       0       0
   -------------------------------------------------------
    Total     232     232      64      64      64       0
   -------------------------------------------------------

  ==> Integral Setup <==

  ==> DFJK: Density-Fitted J/K Matrices <==

    J tasked:                  Yes
    K tasked:                  Yes
    wK tasked:                  No
    OpenMP threads:              8
    Integrals threads:           8
    Memory (MB):             14305
    Algorithm:                Core
    Integral Cache:           NONE
    Schwarz Cutoff:          1E-12
    Fitting Condition:       1E-12

   => Auxiliary Basis Set <=

  Basis Set: file /usr/local/software/miniconda2/envs/p4env/share/psi4/basis/cc-pvdz-jkfit.gbs
    Number of shells: 417
    Number of basis function: 1406
    Number of Cartesian functions: 1406
    Spherical Harmonics?: false
    Max angular momentum: 3

  Minimum eigenvalue in the overlap matrix is 3.7042299989E-04.
  Using Symmetric Orthogonalization.

  SCF Guess: Orbitals guess was supplied from a previous computation.

  ==> Iterations <==

                           Total Energy        Delta E     RMS |[F,P]|

   @DF-RHF iter   0: -1908.90975285371405   -1.90891e+03   3.00752e-03 
   @DF-RHF iter   1: -1908.78367483268835    1.26078e-01   7.41119e-04 
   @DF-RHF iter   2: -1908.79351129686029   -9.83646e-03   4.96740e-04 DIIS
   @DF-RHF iter   3: -1908.79852458814526   -5.01329e-03   5.84158e-05 DIIS
   @DF-RHF iter   4: -1908.79861599546030   -9.14073e-05   2.09910e-05 DIIS
   @DF-RHF iter   5: -1908.79863451607821   -1.85206e-05   7.46392e-06 DIIS
   @DF-RHF iter   6: -1908.79863723643484   -2.72036e-06   2.58576e-06 DIIS
   @DF-RHF iter   7: -1908.79863781615359   -5.79719e-07   9.93402e-07 DIIS
   @DF-RHF iter   8: -1908.79863790077570   -8.46221e-08   5.05673e-07 DIIS
   @DF-RHF iter   9: -1908.79863792159676   -2.08211e-08   1.77602e-07 DIIS
   @DF-RHF iter  10: -1908.79863792530409   -3.70733e-09   7.29666e-08 DIIS
   @DF-RHF iter  11: -1908.79863792600963   -7.05541e-10   3.14573e-08 DIIS
   @DF-RHF iter  12: -1908.79863792611923   -1.09594e-10   1.17127e-08 DIIS
   @DF-RHF iter  13: -1908.79863792613878   -1.95541e-11   4.50393e-09 DIIS

  ==> Post-Iterations <==

    Orbital Energies (a.u.)
    -----------------------

    Doubly Occupied:                                                      

       1A   -104.846178     2A   -104.845390     3A   -104.819669  
       4A    -20.626748     5A    -20.618800     6A    -20.569821  
       7A    -11.403551     8A    -11.338105     9A    -11.334532  
      10A    -11.332197    11A    -11.327946    12A    -11.326900  
      13A    -11.279974    14A    -11.274974    15A    -10.579420  
      16A    -10.578596    17A    -10.557051    18A     -8.048862  
      19A     -8.048040    20A     -8.045338    21A     -8.045322  
      22A     -8.044507    23A     -8.044505    24A     -8.025896  
      25A     -8.022914    26A     -8.022203    27A     -1.502598  
      28A     -1.442518    29A     -1.392284    30A     -1.241644  
      31A     -1.181910    32A     -1.152804    33A     -1.109884  
      34A     -1.055147    35A     -1.016919    36A     -0.983838  
      37A     -0.885582    38A     -0.859618    39A     -0.831874  
      40A     -0.752717    41A     -0.743756    42A     -0.719990  
      43A     -0.714434    44A     -0.688185    45A     -0.663151  
      46A     -0.650034    47A     -0.643162    48A     -0.626275  
      49A     -0.598863    50A     -0.594508    51A     -0.577264  
      52A     -0.561223    53A     -0.553277    54A     -0.516571  
      55A     -0.514625    56A     -0.500042    57A     -0.496585  
      58A     -0.483885    59A     -0.462336    60A     -0.456712  
      61A     -0.450594    62A     -0.400316    63A     -0.363721  
      64A     -0.341240  

    Virtual:                                                              

      65A      0.097349    66A      0.104967    67A      0.149607  
      68A      0.172558    69A      0.196594    70A      0.222853  
      71A      0.236446    72A      0.247838    73A      0.281684  
      74A      0.291299    75A      0.305625    76A      0.314528  
      77A      0.329686    78A      0.384024    79A      0.408954  
      80A      0.426123    81A      0.438173    82A      0.454361  
      83A      0.475015    84A      0.484728    85A      0.521187  
      86A      0.543712    87A      0.554168    88A      0.587787  
      89A      0.598767    90A      0.599549    91A      0.614043  
      92A      0.616743    93A      0.631045    94A      0.645147  
      95A      0.652926    96A      0.661921    97A      0.671784  
      98A      0.694514    99A      0.723822   100A      0.730630  
     101A      0.742996   102A      0.753491   103A      0.774290  
     104A      0.787660   105A      0.797840   106A      0.816684  
     107A      0.824691   108A      0.837369   109A      0.844280  
     110A      0.879700   111A      0.889771   112A      0.907385  
     113A      0.929272   114A      0.945114   115A      0.954833  
     116A      0.977871   117A      0.980217   118A      1.004033  
     119A      1.028573   120A      1.042680   121A      1.054424  
     122A      1.066360   123A      1.078155   124A      1.085029  
     125A      1.100032   126A      1.107893   127A      1.112721  
     128A      1.126262   129A      1.131411   130A      1.137170  
     131A      1.140899   132A      1.153329   133A      1.155189  
     134A      1.189513   135A      1.196648   136A      1.212870  
     137A      1.239565   138A      1.263228   139A      1.265024  
     140A      1.267444   141A      1.290525   142A      1.300761  
     143A      1.318745   144A      1.341235   145A      1.353059  
     146A      1.363138   147A      1.397401   148A      1.402901  
     149A      1.421753   150A      1.436184   151A      1.450034  
     152A      1.473376   153A      1.545474   154A      1.562304  
     155A      1.591328   156A      1.634349   157A      1.646482  
     158A      1.666887   159A      1.680869   160A      1.689745  
     161A      1.740833   162A      1.750349   163A      1.770227  
     164A      1.788698   165A      1.796047   166A      1.814448  
     167A      1.828137   168A      1.853494   169A      1.892625  
     170A      1.973822   171A      2.019889   172A      2.034208  
     173A      2.062560   174A      2.065634   175A      2.073900  
     176A      2.104762   177A      2.116466   178A      2.142578  
     179A      2.184601   180A      2.202549   181A      2.215724  
     182A      2.227022   183A      2.275996   184A      2.329622  
     185A      2.335415   186A      2.352444   187A      2.379717  
     188A      2.387930   189A      2.418065   190A      2.423857  
     191A      2.433366   192A      2.506198   193A      2.526065  
     194A      2.568536   195A      2.590635   196A      2.598211  
     197A      2.648264   198A      2.663628   199A      2.733381  
     200A      2.801568   201A      2.834003   202A      2.876874  
     203A      2.887176   204A      2.968756   205A      2.996935  
     206A      3.019882   207A      3.067224   208A      3.072745  
     209A      3.094801   210A      3.112943   211A      3.154835  
     212A      3.200927   213A      3.264208   214A      3.364924  
     215A      3.394306   216A      3.478325   217A      3.509010  
     218A      3.705630   219A      4.284208   220A      4.427964  
     221A      4.454090   222A      4.477676   223A      4.524470  
     224A      4.598663   225A      4.634788   226A      4.674872  
     227A      4.731605   228A      4.753783   229A      4.816866  
     230A      4.873161   231A      4.970909   232A      5.144146  

    Final Occupation by Irrep:
              A 
    DOCC [    64 ]

  Energy converged.

  @DF-RHF Final Energy: -1908.79863792613878

   => Energetics <=

    Nuclear Repulsion Energy =           1207.7447141092677612
    One-Electron Energy =               -5033.6116524423287046
    Two-Electron Energy =                1917.0683004069219351
    DFT Exchange-Correlation Energy =       0.0000000000000000
    Empirical Dispersion Energy =           0.0000000000000000
    PCM Polarization Energy =               0.0000000000000000
    EFP Energy =                            0.0000000000000000
    Total Energy =                      -1908.7986379261387810

    Alert: EFP and PCM quantities not currently incorporated into SCF psivars.

Properties will be evaluated at   0.000000,   0.000000,   0.000000 Bohr

Properties computed using the SCF density matrix

  Nuclear Dipole Moment: (a.u.)
     X:     7.9853      Y:     8.3622      Z:     4.7712

  Electronic Dipole Moment: (a.u.)
     X:    -7.6722      Y:    -8.1487      Z:    -4.6649

  Dipole Moment: (a.u.)
     X:     0.3130      Y:     0.2135      Z:     0.1062     Total:     0.3935

  Dipole Moment: (Debye)
     X:     0.7957      Y:     0.5426      Z:     0.2700     Total:     1.0002


*** tstop() called on dakota at Thu Sep 27 12:33:12 2018
Module time:
	user time   =      93.54 seconds =       1.56 minutes
	system time =       2.00 seconds =       0.03 minutes
	total time  =         25 seconds =       0.42 minutes
Total time:
	user time   =     255.52 seconds =       4.26 minutes
	system time =       5.25 seconds =       0.09 minutes
	total time  =         68 seconds =       1.13 minutes

*** tstart() called on dakota
*** at Thu Sep 27 12:33:12 2018


         ------------------------------------------------------------
                                   SCF GRAD                          
                          Rob Parrish, Justin Turney,                
                       Andy Simmonett, and Alex Sokolov              
         ------------------------------------------------------------

  ==> Geometry <==

    Molecular point group: c1
    Full point group: C1

    Geometry (in Angstrom), charge = 0, multiplicity = 1:

       Center              X                  Y                   Z               Mass       
    ------------   -----------------  -----------------  -----------------  -----------------
           C          0.718182386074    -0.330359964111    -0.492650203823    12.000000000000
           O          0.746329263167     2.043837195557     0.059705432606    15.994914619560
           C          0.088245964636     0.862821177809    -0.130159059690    12.000000000000
           C         -1.291188745842     0.875069581469    -0.018538120837    12.000000000000
           H         -1.776485975255     1.795362670264     0.242188662821     1.007825032070
           O          3.428263638750     2.150519685026     2.437805063659    15.994914619560
           C         -2.040750527243    -0.266896608723    -0.238814503770    12.000000000000
           C         -1.406476630791    -1.451447638954    -0.580241688723    12.000000000000
           C         -0.028613844026    -1.474803086189    -0.708168462266    12.000000000000
           H          0.463187694180    -2.386209791038    -0.984580603675     1.007825032070
           C          1.349028815004     2.304870714936     1.306635073976    12.000000000000
           H          0.793077319588     1.756208283797     2.057525823621     1.007825032070
           H          1.290818700873     3.356893534464     1.551657034290     1.007825032070
           C          2.805733187281     1.897915987125     1.456329162775    12.000000000000
           O          3.271828552013     1.224838025505     0.419898303572    15.994914619560
           H          4.178804102612     0.984462265124     0.607645544032     1.007825032070
          CL         -2.286287548043    -2.916505253216    -0.865151335171    34.968852682000
          CL          2.433168696632    -0.385620681378    -0.698994941574    34.968852682000
          CL         -3.762182309819    -0.164828217202    -0.074398619031    34.968852682000

  Nuclear repulsion = 1207.744714109267761

  ==> Basis Set <==

  Basis Set: file /usr/local/software/miniconda2/envs/p4env/share/psi4/basis/6-31g_d_.gbs
    Number of shells: 100
    Number of basis function: 232
    Number of Cartesian functions: 232
    Spherical Harmonics?: false
    Max angular momentum: 2

  ==> DFJKGrad: Density-Fitted SCF Gradients <==

    Gradient:                    1
    J tasked:                  Yes
    K tasked:                  Yes
    wK tasked:                  No
    OpenMP threads:              8
    Integrals threads:           8
    Memory (MB):             14305
    Schwarz Cutoff:          0E+00
    Fitting Condition:       1E-12

   => Auxiliary Basis Set <=

  Basis Set: file /usr/local/software/miniconda2/envs/p4env/share/psi4/basis/cc-pvdz-jkfit.gbs
    Number of shells: 417
    Number of basis function: 1406
    Number of Cartesian functions: 1406
    Spherical Harmonics?: false
    Max angular momentum: 3


  -Total Gradient:
     Atom            X                  Y                   Z
    ------   -----------------  -----------------  -----------------
       1       -0.002226301358    -0.005337693137    -0.000122647313
       2       -0.010181200674    -0.000650220622     0.003173615407
       3        0.000684022066     0.000679897743    -0.000926884372
       4       -0.001503064648    -0.000103020884    -0.001445829851
       5        0.000384344406     0.000094665728     0.000400312141
       6        0.004026009484     0.001400741201     0.002949719297
       7        0.000991706281    -0.000235204808    -0.000270763051
       8        0.000029488347    -0.000031796381    -0.000197580122
       9        0.001322584031    -0.002191465049    -0.000899850433
      10       -0.000229024293    -0.000719335910     0.000060669909
      11        0.008031498547     0.014162194262    -0.005901021271
      12       -0.002851081315    -0.003151890426    -0.006017256286
      13        0.003067947038     0.000318687776     0.007183414624
      14       -0.003485987434    -0.003793628844     0.003517888073
      15       -0.049315061043    -0.094618071026    -0.070011743808
      16        0.000777979323    -0.001894089553    -0.000298911923
      17       -0.000292028161    -0.000487798195    -0.000082822524
      18        0.051146015553     0.096537971635     0.068844868638
      19       -0.000377846251     0.000020056454     0.000044822836


*** tstop() called on dakota at Thu Sep 27 12:33:26 2018
Module time:
	user time   =      51.53 seconds =       0.86 minutes
	system time =       0.86 seconds =       0.01 minutes
	total time  =         14 seconds =       0.23 minutes
Total time:
	user time   =     307.05 seconds =       5.12 minutes
	system time =       6.11 seconds =       0.10 minutes
	total time  =         82 seconds =       1.37 minutes

			-----------------------------------------
			 OPTKING 2.0: for geometry optimizations 
			  - R.A. King,  Bethel University        
			-----------------------------------------

	Previous internal coordinate definitions found.
	---Fragment 1 Geometry and Gradient---
	 C           1.3571680231       -0.6242898574       -0.9309739645
	 O           1.4103579123        3.8622925598        0.1128269163
	 C           0.1667607055        1.6304957277       -0.2459649765
	 C          -2.4399931155        1.6536418562       -0.0350319714
	 H          -3.3570719721        3.3927437560        0.4576702452
	 O           6.4784793886        4.0638932481        4.6067839357
	 C          -3.8564596020       -0.5043614963       -0.4512940087
	 C          -2.6578556445       -2.7428385338       -1.0964978826
	 C          -0.0540723288       -2.7869739328       -1.3382444496
	 H           0.8752978901       -4.5092830007       -1.8605876967
	 C           2.5492950057        4.3555744229        2.4691824454
	 H           1.4986989362        3.3187526887        3.8881603180
	 H           2.4392938319        6.3436094374        2.9322068470
	 C           5.3020673259        3.5865414389        2.7520632770
	 O           6.1828599171        2.3146084253        0.7934927974
	 H           7.8967953169        1.8603640692        1.1482836641
	 CL         -4.3204573268       -5.5113961937       -1.6348990870
	 CL          4.5980224717       -0.7287174790       -1.3209090078
	 CL         -7.1094942275       -0.3114801895       -0.1405930146
	            -0.0022263014       -0.0053376931       -0.0001226473
	            -0.0101812007       -0.0006502206        0.0031736154
	             0.0006840221        0.0006798977       -0.0009268844
	            -0.0015030646       -0.0001030209       -0.0014458299
	             0.0003843444        0.0000946657        0.0004003121
	             0.0040260095        0.0014007412        0.0029497193
	             0.0009917063       -0.0002352048       -0.0002707631
	             0.0000294883       -0.0000317964       -0.0001975801
	             0.0013225840       -0.0021914650       -0.0008998504
	            -0.0002290243       -0.0007193359        0.0000606699
	             0.0080314985        0.0141621943       -0.0059010213
	            -0.0028510813       -0.0031518904       -0.0060172563
	             0.0030679470        0.0003186878        0.0071834146
	            -0.0034859874       -0.0037936288        0.0035178881
	            -0.0493150610       -0.0946180710       -0.0700117438
	             0.0007779793       -0.0018940896       -0.0002989119
	            -0.0002920282       -0.0004877982       -0.0000828225
	             0.0511460156        0.0965379716        0.0688448686
	            -0.0003778463        0.0000200565        0.0000448228

	---Fragment 1 Intrafragment Coordinates---
	 - Coordinate -           - BOHR/RAD -       - ANG/DEG -
	 R(1,3)           =         2.640145	       1.397104
	 R(1,9)           =         2.614320	       1.383439
	 R(1,18)          =         3.265898	       1.728239
	 R(2,3)           =         2.579958	       1.365255
	 R(2,11)          =         2.663253	       1.409333
	 R(3,4)           =         2.615376	       1.383998
	 R(4,5)           =         2.026885	       1.072582
	 R(4,7)           =         2.614695	       1.383637
	 R(6,14)          =         2.247621	       1.189390
	 R(7,8)           =         2.619870	       1.386376
	 R(7,19)          =         3.273526	       1.732275
	 R(8,9)           =         2.615354	       1.383986
	 R(8,17)          =         3.273993	       1.732523
	 R(9,10)          =         2.025567	       1.071884
	 R(11,12)         =         2.047498	       1.083489
	 R(11,13)         =         2.044205	       1.081747
	 R(11,14)         =         2.872140	       1.519871
	 R(14,15)         =         2.495918	       1.320783
	 R(15,16)         =         1.808256	       0.956888
	 R(15,18)         =         4.030414	       2.132803
	 B(1,3,2)         =         2.162207	     123.885325
	 B(1,3,4)         =         2.069041	     118.547326
	 B(1,9,8)         =         2.104893	     120.601467
	 B(1,9,10)        =         2.089657	     119.728518
	 B(1,18,15)       =         1.879080	     107.663347
	 B(2,3,4)         =         2.050551	     117.487903
	 B(2,11,12)       =         1.875433	     107.454369
	 B(2,11,13)       =         1.936408	     110.948016
	 B(2,11,14)       =         2.034679	     116.578537
	 B(3,1,9)         =         2.098470	     120.233483
	 B(3,1,18)        =         2.101008	     120.378890
	 B(3,2,11)        =         2.082201	     119.301329
	 B(3,4,5)         =         2.069359	     118.565551
	 B(3,4,7)         =         2.117417	     121.319035
	 B(4,7,8)         =         2.090413	     119.771867
	 B(4,7,19)        =         2.065308	     118.333404
	 B(5,4,7)         =         2.096406	     120.115240
	 B(6,14,11)       =         2.124755	     121.739521
	 B(6,14,15)       =         2.178595	     124.824289
	 B(7,8,9)         =         2.085944	     119.515815
	 B(7,8,17)        =         2.130207	     122.051854
	 B(8,7,19)        =         2.127464	     121.894700
	 B(8,9,10)        =         2.088603	     119.668121
	 B(9,1,18)        =         2.083598	     119.381392
	 B(9,8,17)        =         2.067015	     118.431209
	 B(11,14,15)      =         1.979467	     113.415092
	 B(12,11,13)      =         1.883764	     107.931744
	 B(12,11,14)      =         1.862873	     106.734775
	 B(13,11,14)      =         1.864673	     106.837882
	 B(14,15,16)      =         1.884451	     107.971083
	 B(14,15,18)      =         2.288559	     131.124776
	 B(16,15,18)      =         1.860802	     106.616108
	 D(1,3,2,11)      =        -1.462933	     -83.819876
	 D(1,3,4,5)       =        -3.122327	    -178.896152
	 D(1,3,4,7)       =         0.016620	       0.952254
	 D(1,9,8,7)       =         0.005153	       0.295256
	 D(1,9,8,17)      =         3.140159	     179.917870
	 D(1,18,15,14)    =         0.404879	      23.197858
	 D(1,18,15,16)    =         2.734399	     156.669519
	 D(2,3,1,9)       =        -3.104488	    -177.874061
	 D(2,3,1,18)      =         0.021153	       1.211987
	 D(2,3,4,5)       =        -0.035082	      -2.010050
	 D(2,3,4,7)       =         3.103865	     177.838357
	 D(2,11,14,6)     =         3.057718	     175.194342
	 D(2,11,14,15)    =        -0.111707	      -6.400322
	 D(3,1,9,8)       =         0.010337	       0.592281
	 D(3,1,9,10)      =        -3.140022	    -179.909984
	 D(3,1,18,15)     =         0.399996	      22.918107
	 D(3,2,11,12)     =        -0.485437	     -27.813509
	 D(3,2,11,13)     =        -2.540946	    -145.585506
	 D(3,2,11,14)     =         1.602976	      91.843777
	 D(3,4,7,8)       =        -0.001419	      -0.081329
	 D(3,4,7,19)      =         3.139118	     179.858211
	 D(4,3,1,9)       =        -0.020976	      -1.201822
	 D(4,3,1,18)      =         3.104665	     177.884226
	 D(4,3,2,11)      =         1.736171	      99.475267
	 D(4,7,8,9)       =        -0.009626	      -0.551511
	 D(4,7,8,17)      =         3.138801	     179.840044
	 D(5,4,7,8)       =         3.137487	     179.764756
	 D(5,4,7,19)      =        -0.005161	      -0.295705
	 D(6,14,11,12)    =        -1.130323	     -64.762737
	 D(6,14,11,13)    =         0.881532	      50.508064
	 D(6,14,15,16)    =         0.003513	       0.201280
	 D(6,14,15,18)    =         2.325205	     133.224430
	 D(7,8,9,10)      =        -3.127679	    -179.202781
	 D(8,9,1,18)      =        -3.115463	    -178.502865
	 D(9,1,18,15)     =        -2.757412	    -157.988091
	 D(9,8,7,19)      =         3.133061	     179.511170
	 D(10,9,1,18)     =         0.017364	       0.994870
	 D(10,9,8,17)     =         0.007327	       0.419833
	 D(11,14,15,16)   =        -3.109246	    -178.146655
	 D(11,14,15,18)   =        -0.787554	     -45.123505
	 D(12,11,14,15)   =         1.983438	     113.642599
	 D(13,11,14,15)   =        -2.287893	    -131.086600
	 D(17,8,7,19)     =        -0.001698	      -0.097275

	Current energy   :     -1908.7986379261

	Energy change for the previous step:
		Projected    :        -0.1073048422
		Actual       :        -0.0957644379
	Energy ratio indicates good step: Trust radius increased to 1.000e+00.


	Performing BFGS update.
	Previous computed or guess Hessian on step 1.
	Steps to be used in Hessian update: 1
	Taking RFO optimization step.
	Going to follow RFO solution 1.
	Using RFO vector 1.
	Norm of target step-size    0.41081
	Projected energy change by RFO approximation:        -0.0340394766

	Back-transformation to cartesian coordinates...
	Could not converge backtransformation.
	Using first guess instead.

	--- Internal Coordinate Step in ANG or DEG, aJ/ANG or AJ/DEG ---
	 ---------------------------------------------------------------------------
	   Coordinate                Previous        Force       Change         New 
	   ----------                --------       ------       ------       ------
	    1 R(1,3)          =      1.397104    -0.001166    -0.004600     1.392504
	    2 R(1,9)          =      1.383439    -0.009283    -0.002209     1.381229
	    3 R(1,18)         =      1.728239    -0.025002     0.001033     1.729272
	    4 R(2,3)          =      1.365255    -0.000797    -0.005941     1.359314
	    5 R(2,11)         =      1.409333    -0.002527    -0.004755     1.404578
	    6 R(3,4)          =      1.383998     0.000680     0.000224     1.384221
	    7 R(4,5)          =      1.072582    -0.000038     0.000100     1.072682
	    8 R(4,7)          =      1.383637    -0.010859    -0.000865     1.382772
	    9 R(6,14)         =      1.189390    -0.039866    -0.002420     1.186970
	   10 R(7,8)          =      1.386376    -0.016168    -0.001435     1.384940
	   11 R(7,19)         =      1.732275    -0.003138    -0.000120     1.732156
	   12 R(8,9)          =      1.383986    -0.006065     0.000059     1.384045
	   13 R(8,17)         =      1.732523    -0.004732    -0.000821     1.731702
	   14 R(9,10)         =      1.071884    -0.004045     0.000081     1.071964
	   15 R(11,12)        =      1.083489     0.009154     0.001669     1.085159
	   16 R(11,13)        =      1.081747    -0.014598     0.000602     1.082349
	   17 R(11,14)        =      1.519871    -0.015823    -0.002482     1.517389
	   18 R(14,15)        =      1.320783    -0.060462    -0.007032     1.313751
	   19 R(15,16)        =      0.956888    -0.009512    -0.001941     0.954947
	   20 R(15,18)        =      2.132803     0.992417     0.188807     2.321610
	   21 B(1,3,2)        =    123.885325     0.000796     0.449215   124.334540
	   22 B(1,3,4)        =    118.547326    -0.000061     0.352089   118.899415
	   23 B(1,9,8)        =    120.601467     0.000182     0.507039   121.108506
	   24 B(1,9,10)       =    119.728518    -0.000132    -0.435494   119.293024
	   25 B(1,18,15)      =    107.663347    -0.001279    -3.241202   104.422145
	   26 B(2,3,4)        =    117.487903    -0.000733    -0.804850   116.683053
	   27 B(2,11,12)      =    107.454369     0.000312     3.039477   110.493846
	   28 B(2,11,13)      =    110.948016    -0.000574    -3.138156   107.809860
	   29 B(2,11,14)      =    116.578537     0.000366    -0.749554   115.828982
	   30 B(3,1,9)        =    120.233483    -0.000149    -0.594764   119.638719
	   31 B(3,1,18)       =    120.378890     0.000375     1.370416   121.749305
	   32 B(3,2,11)       =    119.301329     0.000099    -0.426309   118.875020
	   33 B(3,4,5)        =    118.565551    -0.000048     0.013944   118.579494
	   34 B(3,4,7)        =    121.319035     0.000158     0.153010   121.472045
	   35 B(4,7,8)        =    119.771867    -0.000101    -0.389133   119.382734
	   36 B(4,7,19)       =    118.333404     0.000050     0.204121   118.537525
	   37 B(5,4,7)        =    120.115240    -0.000110    -0.167235   119.948005
	   38 B(6,14,11)      =    121.739521    -0.000055    -0.302858   121.436662
	   39 B(6,14,15)      =    124.824289     0.000212    -0.060605   124.763684
	   40 B(7,8,9)        =    119.515815    -0.000031    -0.029201   119.486614
	   41 B(7,8,17)       =    122.051854     0.000015     0.057623   122.109477
	   42 B(8,7,19)       =    121.894700     0.000050     0.185041   122.079741
	   43 B(8,9,10)       =    119.668121    -0.000050    -0.071673   119.596448
	   44 B(9,1,18)       =    119.381392    -0.000227    -0.781156   118.600236
	   45 B(9,8,17)       =    118.431209     0.000015    -0.028579   118.402630
	   46 B(11,14,15)     =    113.415092    -0.000158     0.375184   113.790276
	   47 B(12,11,13)     =    107.931744    -0.000012     0.046388   107.978132
	   48 B(12,11,14)     =    106.734775    -0.000062     0.422953   107.157728
	   49 B(13,11,14)     =    106.837882    -0.000035     0.452728   107.290610
	   50 B(14,15,16)     =    107.971083     0.000072     0.788536   108.759619
	   51 B(14,15,18)     =    131.124776    -0.000449    -1.514229   129.610546
	   52 B(16,15,18)     =    106.616108     0.000424     1.317418   107.933526
	   53 D(1,3,2,11)     =    -83.819876    -0.000121    -3.552000   -87.371876
	   54 D(1,3,4,5)      =   -178.896152     0.000004     0.185237  -178.710915
	   55 D(1,3,4,7)      =      0.952254     0.000011     0.091271     1.043526
	   56 D(1,9,8,7)      =      0.295256     0.000002     0.068794     0.364050
	   57 D(1,9,8,17)     =    179.917870    -0.000004     0.043505   179.961375
	   58 D(1,18,15,14)   =     23.197858    -0.000003    -0.656071    22.541786
	   59 D(1,18,15,16)   =    156.669519     0.000043     0.831204   157.500723
	   60 D(2,3,1,9)      =   -177.874061    -0.000019     0.073473  -177.800588
	   61 D(2,3,1,18)     =      1.211987    -0.000032    -0.276682     0.935306
	   62 D(2,3,4,5)      =     -2.010050     0.000019     0.131025    -1.879025
	   63 D(2,3,4,7)      =    177.838357     0.000026     0.037060   177.875417
	   64 D(2,11,14,6)    =    175.194342    -0.000031    -1.784523   173.409819
	   65 D(2,11,14,15)   =     -6.400322    -0.000035    -1.253235    -7.653558
	   66 D(3,1,9,8)      =      0.592281     0.000009    -0.050014     0.542267
	   67 D(3,1,9,10)     =   -179.909984    -0.000000    -0.067173  -179.977157
	   68 D(3,1,18,15)    =     22.918107    -0.000045    -0.258465    22.659641
	   69 D(3,2,11,12)    =    -27.813509     0.000058     1.962141   -25.851368
	   70 D(3,2,11,13)    =   -145.585506     0.000092     1.948329  -143.637176
	   71 D(3,2,11,14)    =     91.843777     0.000148     4.364858    96.208635
	   72 D(3,4,7,8)      =     -0.081329    -0.000000    -0.064707    -0.146035
	   73 D(3,4,7,19)     =    179.858211    -0.000004    -0.006422   179.851788
	   74 D(4,3,1,9)      =     -1.201822    -0.000015    -0.027088    -1.228910
	   75 D(4,3,1,18)     =    177.884226    -0.000028    -0.377243   177.506984
	   76 D(4,3,2,11)     =     99.475267    -0.000130    -3.488100    95.987167
	   77 D(4,7,8,9)      =     -0.551511    -0.000007    -0.010540    -0.562051
	   78 D(4,7,8,17)     =    179.840044    -0.000001     0.016075   179.856118
	   79 D(5,4,7,8)      =    179.764756     0.000007    -0.159659   179.605097
	   80 D(5,4,7,19)     =     -0.295705     0.000004    -0.101374    -0.397080
	   81 D(6,14,11,12)   =    -64.762737     0.000104     1.988492   -62.774245
	   82 D(6,14,11,13)   =     50.508064     0.000090     2.466477    52.974541
	   83 D(6,14,15,16)   =      0.201280     0.000023     0.837442     1.038722
	   84 D(6,14,15,18)   =    133.224430     0.000096     2.497559   135.721989
	   85 D(7,8,9,10)     =   -179.202781     0.000012     0.087810  -179.114971
	   86 D(8,9,1,18)     =   -178.502865     0.000021     0.269462  -178.233403
	   87 D(9,1,18,15)    =   -157.988091    -0.000057    -0.603673  -158.591764
	   88 D(9,8,7,19)     =    179.511170    -0.000003    -0.070964   179.440206
	   89 D(10,9,1,18)    =      0.994870     0.000011     0.252303     1.247173
	   90 D(10,9,8,17)    =      0.419833     0.000006     0.062521     0.482354
	   91 D(11,14,15,16)  =   -178.146655     0.000028     0.289800  -177.856855
	   92 D(11,14,15,18)  =    -45.123505     0.000101     1.949917   -43.173588
	   93 D(12,11,14,15)  =    113.642599     0.000100     2.519779   116.162378
	   94 D(13,11,14,15)  =   -131.086600     0.000087     2.997764  -128.088835
	   95 D(17,8,7,19)    =     -0.097275     0.000003    -0.044350    -0.141625
	 ---------------------------------------------------------------------------
	Successfully symmetrized geometry.

  ==> Convergence Check <==

  Measures of convergence in internal coordinates in au.
  Criteria marked as inactive (o), active & met (*), and active & unmet ( ).
  ---------------------------------------------------------------------------------------------
   Step     Total Energy     Delta E     MAX Force     RMS Force      MAX Disp      RMS Disp   
  ---------------------------------------------------------------------------------------------
    Convergence Criteria             o    1.50e-05 *    1.00e-05 *    6.00e-05 *    4.00e-05 *
  ---------------------------------------------------------------------------------------------
      2   -1908.79863793   -9.58e-02 o    1.20e-01      1.29e-02      3.57e-01      4.22e-02    ~
  ---------------------------------------------------------------------------------------------

	Writing optimization data to binary file.
	Structure for next step:
	Cartesian Geometry (in Angstrom)
	    C     0.7237238877  -0.3649064020  -0.5224477101
	    O     0.7813455310   2.0001239763   0.0479385212
	    C     0.1171203807   0.8295181609  -0.1423809956
	    C    -1.2601441049   0.8675404267  -0.0090940868
	    H    -1.7238823303   1.7955981092   0.2634896825
	    O     3.3969741958   2.2214857559   2.4627036530
	    C    -2.0375065060  -0.2556845278  -0.2238763848
	    C    -1.4272497108  -1.4458128817  -0.5833774839
	    C    -0.0519642304  -1.4882000837  -0.7329569629
	    H     0.4208180539  -2.4048627527  -1.0250427123
	    C     1.3323949360   2.2696303616   1.3114854021
	    H     0.7903800799   1.7344045538   2.0843518984
	    H     1.2240241679   3.3298021522   1.5006156457
	    C     2.8018028884   1.9296871455   1.4780602359
	    O     3.3145663850   1.2804948600   0.4574900392
	    H     4.2267887223   1.0749660815   0.6512217559
	   CL    -2.3316017705  -2.8953494616  -0.8658345593
	   CL     2.4310018229  -0.4791216610  -0.7725246614
	   CL    -3.7539096589  -0.1231859329  -0.0321287139
			--------------------------
			 OPTKING Finished Execution 
			--------------------------

    Structure for next step:
    Molecular point group: c1
    Full point group: C1

    Geometry (in Angstrom), charge = 0, multiplicity = 1:

    C            0.726051431664    -0.362429680755    -0.520347703445
    O            0.783673075034     2.002600697567     0.050038527823
    C            0.119447924702     0.831994882106    -0.140280988957
    C           -1.257816560844     0.870017147959    -0.006994080155
    H           -1.721554786290     1.798074830423     0.265589689101
    O            3.399301739801     2.223962477103     2.464803659662
    C           -2.035178961976    -0.253207806586    -0.221776378165
    C           -1.424922166799    -1.443336160443    -0.581277477252
    C           -0.049636686439    -1.485723362467    -0.730856956262
    H            0.423145597949    -2.402386031424    -1.022942705688
    C            1.334722480004     2.272107082881     1.313585408697
    H            0.792707623907     1.736881275026     2.086451905002
    H            1.226351711874     3.332278873432     1.502715652385
    C            2.804130432420     1.932163866729     1.480160242491
    O            3.316893929036     1.282971581279     0.459590045869
[...]
	 ---------------------------------------------------------------------------
	Successfully symmetrized geometry.

  ==> Convergence Check <==

  Measures of convergence in internal coordinates in au.
  Criteria marked as inactive (o), active & met (*), and active & unmet ( ).
  ---------------------------------------------------------------------------------------------
   Step     Total Energy     Delta E     MAX Force     RMS Force      MAX Disp      RMS Disp   
  ---------------------------------------------------------------------------------------------
    Convergence Criteria             o    1.50e-05 *    1.00e-05 *    6.00e-05 *    4.00e-05 *
  ---------------------------------------------------------------------------------------------
     19   -1908.87585839   -2.30e-05 o    4.52e-04      9.25e-05      1.59e-02      4.82e-03    ~
  ---------------------------------------------------------------------------------------------

	Writing optimization data to binary file.
	Structure for next step:
	Cartesian Geometry (in Angstrom)
	    C     0.7067007301  -0.5296274497  -0.9025012318
	    O     1.2125650687   1.6216210868  -0.0751888747
	    C     0.3169781462   0.6286957306  -0.2359852826
	    C    -0.9969126474   0.7482683943   0.1801272133
	    H    -1.3290268034   1.6487073594   0.6585022873
	    O     2.8845223205   2.5779031161   2.8843260836
	    C    -1.9083550467  -0.2740791401  -0.0301212957
	    C    -1.5127004678  -1.4276295032  -0.6831359792
	    C    -0.2030816781  -1.5419169295  -1.1219944226
	    H     0.1069839263  -2.4317963688  -1.6328338477
	    C     1.3166763858   2.2885793144   1.1498062262
	    H     0.5958586207   1.9360058681   1.8740347764
	    H     1.1446443613   3.3455624324   0.9901049625
	    C     2.6823897362   2.1545096448   1.7930898367
	    O     3.5956308939   1.5675287758   1.0487270283
	    H     4.4101430174   1.5442804115   1.5430649169
	   CL    -2.6009922733  -2.7415900988  -0.9802083347
	   CL     2.3299476862  -0.7158503068  -1.4718222428
	   CL    -3.5313052841  -0.0487372981   0.5284765179
			--------------------------
			 OPTKING Finished Execution 
			--------------------------

    Structure for next step:
    Molecular point group: c1
    Full point group: C1

    Geometry (in Angstrom), charge = 0, multiplicity = 1:

    C            0.707220277383    -0.530762223682    -0.901291793304
    O            1.213084616012     1.620486312869    -0.073979436186
    C            0.317497693499     0.627560956643    -0.234775844095
    C           -0.996393100082     0.747133620336     0.181336651816
    H           -1.328507256108     1.647572585466     0.659711725845
    O            2.885041867732     2.576768342169     2.885535522145
    C           -1.907835499430    -0.275213914059    -0.028911857229
    C           -1.512180920505    -1.428764277212    -0.681926540680
    C           -0.202562130803    -1.543051703460    -1.120784984121
    H            0.107503473540    -2.432931142813    -1.631624409196
    C            1.317195933070     2.287444540431     1.151015664663
    H            0.596378167970     1.934871094113     1.875244214896
    H            1.145163908589     3.344427658428     0.991314400995
    C            2.682909283491     2.153374870795     1.794299275207
    O            3.596150441168     1.566394001880     1.049936466845
    H            4.410662564662     1.543145637515     1.544274355422
    CL          -2.600472726027    -2.742724872747    -0.978998896146
    CL           2.330467233442    -0.716985080732    -1.470612804245
    CL          -3.530785736824    -0.049872072018     0.529685956379

gradient() will perform analytic gradient computation.

*** tstart() called on dakota
*** at Thu Sep 27 12:43:49 2018


         ---------------------------------------------------------
                                   SCF
            by Justin Turney, Rob Parrish, and Andy Simmonett
                              RHF Reference
                        8 Threads,  20000 MiB Core
         ---------------------------------------------------------

  ==> Geometry <==

    Molecular point group: c1
    Full point group: C1

    Geometry (in Angstrom), charge = 0, multiplicity = 1:

       Center              X                  Y                   Z               Mass       
    ------------   -----------------  -----------------  -----------------  -----------------
           C          0.707220277383    -0.530762223682    -0.901291793304    12.000000000000
           O          1.213084616012     1.620486312869    -0.073979436186    15.994914619560
           C          0.317497693499     0.627560956643    -0.234775844095    12.000000000000
           C         -0.996393100082     0.747133620336     0.181336651816    12.000000000000
           H         -1.328507256108     1.647572585466     0.659711725845     1.007825032070
           O          2.885041867732     2.576768342169     2.885535522145    15.994914619560
           C         -1.907835499430    -0.275213914059    -0.028911857229    12.000000000000
           C         -1.512180920505    -1.428764277212    -0.681926540680    12.000000000000
           C         -0.202562130803    -1.543051703460    -1.120784984121    12.000000000000
           H          0.107503473540    -2.432931142813    -1.631624409196     1.007825032070
           C          1.317195933070     2.287444540431     1.151015664663    12.000000000000
           H          0.596378167970     1.934871094113     1.875244214896     1.007825032070
           H          1.145163908589     3.344427658428     0.991314400995     1.007825032070
           C          2.682909283491     2.153374870795     1.794299275207    12.000000000000
           O          3.596150441168     1.566394001880     1.049936466845    15.994914619560
           H          4.410662564662     1.543145637515     1.544274355422     1.007825032070
          CL         -2.600472726027    -2.742724872747    -0.978998896146    34.968852682000
          CL          2.330467233442    -0.716985080732    -1.470612804245    34.968852682000
          CL         -3.530785736824    -0.049872072018     0.529685956379    34.968852682000

  Running in c1 symmetry.

  Rotational constants: A =      0.02593  B =      0.00885  C =      0.00693 [cm^-1]
  Rotational constants: A =    777.42420  B =    265.23088  C =    207.64095 [MHz]
  Nuclear repulsion = 1177.169302951969257

  Charge       = 0
  Multiplicity = 1
  Electrons    = 128
  Nalpha       = 64
  Nbeta        = 64

  ==> Algorithm <==

  SCF Algorithm Type is DF.
  DIIS enabled.
  MOM disabled.
  Fractional occupation disabled.
  Guess Type is READ.
  Energy threshold   = 1.00e-08
  Density threshold  = 1.00e-08
  Integral threshold = 0.00e+00

  ==> Primary Basis <==

  Basis Set: file /usr/local/software/miniconda2/envs/p4env/share/psi4/basis/6-31g_d_.gbs
    Number of shells: 100
    Number of basis function: 232
    Number of Cartesian functions: 232
    Spherical Harmonics?: false
    Max angular momentum: 2

  Reading orbitals from file 180, no projection.

  ==> Pre-Iterations <==

   -------------------------------------------------------
    Irrep   Nso     Nmo     Nalpha   Nbeta   Ndocc  Nsocc
   -------------------------------------------------------
     A        232     232       0       0       0       0
   -------------------------------------------------------
    Total     232     232      64      64      64       0
   -------------------------------------------------------

  ==> Integral Setup <==

  ==> DFJK: Density-Fitted J/K Matrices <==

    J tasked:                  Yes
    K tasked:                  Yes
    wK tasked:                  No
    OpenMP threads:              8
    Integrals threads:           8
    Memory (MB):             14305
    Algorithm:                Core
    Integral Cache:           NONE
    Schwarz Cutoff:          1E-12
    Fitting Condition:       1E-12

   => Auxiliary Basis Set <=

  Basis Set: file /usr/local/software/miniconda2/envs/p4env/share/psi4/basis/cc-pvdz-jkfit.gbs
    Number of shells: 417
    Number of basis function: 1406
    Number of Cartesian functions: 1406
    Spherical Harmonics?: false
    Max angular momentum: 3

  Minimum eigenvalue in the overlap matrix is 3.7590971887E-04.
  Using Symmetric Orthogonalization.

  SCF Guess: Orbitals guess was supplied from a previous computation.

  ==> Iterations <==

                           Total Energy        Delta E     RMS |[F,P]|

   @DF-RHF iter   0: -1908.87545032619255   -1.90888e+03   1.10216e-04 
   @DF-RHF iter   1: -1908.87586283390328   -4.12508e-04   1.71435e-05 
   @DF-RHF iter   2: -1908.87587918777581   -1.63539e-05   6.21177e-06 DIIS
   @DF-RHF iter   3: -1908.87588212341370   -2.93564e-06   1.70165e-06 DIIS
   @DF-RHF iter   4: -1908.87588228479285   -1.61379e-07   8.21702e-07 DIIS
   @DF-RHF iter   5: -1908.87588234057057   -5.57777e-08   3.25219e-07 DIIS
   @DF-RHF iter   6: -1908.87588235071371   -1.01431e-08   1.32434e-07 DIIS
   @DF-RHF iter   7: -1908.87588235239173   -1.67802e-09   4.95454e-08 DIIS
   @DF-RHF iter   8: -1908.87588235266344   -2.71712e-10   2.14759e-08 DIIS
   @DF-RHF iter   9: -1908.87588235272165   -5.82077e-11   8.72280e-09 DIIS

  ==> Post-Iterations <==

    Orbital Energies (a.u.)
    -----------------------

    Doubly Occupied:                                                      

       1A   -104.848511     2A   -104.845193     3A   -104.839833  
       4A    -20.633380     5A    -20.622538     6A    -20.568877  
       7A    -11.403852     8A    -11.344409     9A    -11.337839  
      10A    -11.330021    11A    -11.328253    12A    -11.324563  
      13A    -11.282520    14A    -11.276706    15A    -10.581789  
      16A    -10.578380    17A    -10.572905    18A     -8.051229  
      19A     -8.047829    20A     -8.047702    21A     -8.047683  
      22A     -8.044304    23A     -8.044287    24A     -8.042392  
      25A     -8.038858    26A     -8.038789    27A     -1.499528  
      28A     -1.455279    29A     -1.387766    30A     -1.243686  
      31A     -1.184226    32A     -1.153846    33A     -1.111332  
      34A     -1.057918    35A     -1.025300    36A     -0.980319  
      37A     -0.890276    38A     -0.854002    39A     -0.831971  
      40A     -0.758000    41A     -0.738757    42A     -0.718873  
      43A     -0.704742    44A     -0.693095    45A     -0.672020  
      46A     -0.653757    47A     -0.641107    48A     -0.607881  
      49A     -0.601781    50A     -0.595382    51A     -0.575705  
      52A     -0.568033    53A     -0.552888    54A     -0.523761  
      55A     -0.516302    56A     -0.499954    57A     -0.491683  
      58A     -0.485175    59A     -0.467899    60A     -0.465398  
      61A     -0.459073    62A     -0.446605    63A     -0.365035  
      64A     -0.339458  

    Virtual:                                                              

      65A      0.095539    66A      0.110373    67A      0.149726  
      68A      0.173731    69A      0.207029    70A      0.213776  
      71A      0.233696    72A      0.244977    73A      0.281425  
      74A      0.292279    75A      0.305186    76A      0.312821  
      77A      0.326683    78A      0.388572    79A      0.398924  
      80A      0.438710    81A      0.448607    82A      0.456653  
      83A      0.465576    84A      0.494591    85A      0.520268  
      86A      0.539997    87A      0.557535    88A      0.580671  
      89A      0.587604    90A      0.598107    91A      0.601700  
      92A      0.624257    93A      0.626835    94A      0.632362  
      95A      0.652692    96A      0.658742    97A      0.675972  
      98A      0.683002    99A      0.701030   100A      0.717402  
     101A      0.729514   102A      0.759438   103A      0.776217  
     104A      0.791458   105A      0.800900   106A      0.805785  
     107A      0.820046   108A      0.842185   109A      0.845595  
     110A      0.873652   111A      0.883617   112A      0.894237  
     113A      0.933418   114A      0.950931   115A      0.957118  
     116A      0.972432   117A      0.988423   118A      1.010240  
     119A      1.032380   120A      1.041509   121A      1.048157  
     122A      1.056719   123A      1.083131   124A      1.096307  
     125A      1.107282   126A      1.109114   127A      1.119674  
     128A      1.123883   129A      1.130166   130A      1.136096  
     131A      1.138561   132A      1.145346   133A      1.162437  
     134A      1.168473   135A      1.181187   136A      1.207237  
     137A      1.219677   138A      1.231677   139A      1.233095  
     140A      1.266336   141A      1.287551   142A      1.304048  
     143A      1.310471   144A      1.324503   145A      1.344873  
     146A      1.348241   147A      1.367193   148A      1.389158  
     149A      1.417821   150A      1.430050   151A      1.432925  
     152A      1.478917   153A      1.491242   154A      1.533635  
     155A      1.570961   156A      1.608262   157A      1.622403  
     158A      1.659159   159A      1.669412   160A      1.675363  
     161A      1.694825   162A      1.739158   163A      1.754535  
     164A      1.783484   165A      1.795975   166A      1.798880  
     167A      1.826146   168A      1.836128   169A      1.928095  
     170A      1.954701   171A      1.996908   172A      2.016366  
     173A      2.037275   174A      2.054825   175A      2.067162  
     176A      2.094328   177A      2.114199   178A      2.122056  
     179A      2.178283   180A      2.210456   181A      2.223649  
     182A      2.237628   183A      2.249268   184A      2.322027  
     185A      2.344943   186A      2.350847   187A      2.380430  
     188A      2.386860   189A      2.418728   190A      2.434178  
     191A      2.455953   192A      2.517667   193A      2.535424  
     194A      2.573248   195A      2.585576   196A      2.599848  
     197A      2.637911   198A      2.656296   199A      2.749520  
     200A      2.786681   201A      2.855002   202A      2.883897  
     203A      2.903639   204A      2.951634   205A      2.989572  
     206A      3.023640   207A      3.071455   208A      3.088434  
     209A      3.092511   210A      3.099375   211A      3.114165  
     212A      3.231614   213A      3.246246   214A      3.351078  
     215A      3.411912   216A      3.473788   217A      3.563700  
     218A      3.713927   219A      4.230085   220A      4.428170  
     221A      4.452321   222A      4.485694   223A      4.522032  
     224A      4.584950   225A      4.630252   226A      4.662005  
     227A      4.728662   228A      4.752976   229A      4.813083  
     230A      4.871410   231A      4.934438   232A      5.143463  

    Final Occupation by Irrep:
              A 
    DOCC [    64 ]

  Energy converged.

  @DF-RHF Final Energy: -1908.87588235272165

   => Energetics <=

    Nuclear Repulsion Energy =           1177.1693029519692573
    One-Electron Energy =               -4972.2094640173636435
    Two-Electron Energy =                1886.1642787126727399
    DFT Exchange-Correlation Energy =       0.0000000000000000
    Empirical Dispersion Energy =           0.0000000000000000
    PCM Polarization Energy =               0.0000000000000000
    EFP Energy =                            0.0000000000000000
    Total Energy =                      -1908.8758823527216464

    Alert: EFP and PCM quantities not currently incorporated into SCF psivars.

Properties will be evaluated at   0.000000,   0.000000,   0.000000 Bohr

Properties computed using the SCF density matrix

  Nuclear Dipole Moment: (a.u.)
     X:     8.1392      Y:     8.9001      Z:     5.0000

  Electronic Dipole Moment: (a.u.)
     X:    -7.8256      Y:    -8.6381      Z:    -4.9979

  Dipole Moment: (a.u.)
     X:     0.3136      Y:     0.2620      Z:     0.0021     Total:     0.4086

  Dipole Moment: (Debye)
     X:     0.7972      Y:     0.6659      Z:     0.0054     Total:     1.0387


*** tstop() called on dakota at Thu Sep 27 12:44:10 2018
Module time:
	user time   =      70.31 seconds =       1.17 minutes
	system time =       1.50 seconds =       0.03 minutes
	total time  =         21 seconds =       0.35 minutes
Total time:
	user time   =    2611.40 seconds =      43.52 minutes
	system time =      53.18 seconds =       0.89 minutes
	total time  =        726 seconds =      12.10 minutes

*** tstart() called on dakota
*** at Thu Sep 27 12:44:10 2018


         ------------------------------------------------------------
                                   SCF GRAD                          
                          Rob Parrish, Justin Turney,                
                       Andy Simmonett, and Alex Sokolov              
         ------------------------------------------------------------

  ==> Geometry <==

    Molecular point group: c1
    Full point group: C1

    Geometry (in Angstrom), charge = 0, multiplicity = 1:

       Center              X                  Y                   Z               Mass       
    ------------   -----------------  -----------------  -----------------  -----------------
           C          0.707220277383    -0.530762223682    -0.901291793304    12.000000000000
           O          1.213084616012     1.620486312869    -0.073979436186    15.994914619560
           C          0.317497693499     0.627560956643    -0.234775844095    12.000000000000
           C         -0.996393100082     0.747133620336     0.181336651816    12.000000000000
           H         -1.328507256108     1.647572585466     0.659711725845     1.007825032070
           O          2.885041867732     2.576768342169     2.885535522145    15.994914619560
           C         -1.907835499430    -0.275213914059    -0.028911857229    12.000000000000
           C         -1.512180920505    -1.428764277212    -0.681926540680    12.000000000000
           C         -0.202562130803    -1.543051703460    -1.120784984121    12.000000000000
           H          0.107503473540    -2.432931142813    -1.631624409196     1.007825032070
           C          1.317195933070     2.287444540431     1.151015664663    12.000000000000
           H          0.596378167970     1.934871094113     1.875244214896     1.007825032070
           H          1.145163908589     3.344427658428     0.991314400995     1.007825032070
           C          2.682909283491     2.153374870795     1.794299275207    12.000000000000
           O          3.596150441168     1.566394001880     1.049936466845    15.994914619560
           H          4.410662564662     1.543145637515     1.544274355422     1.007825032070
          CL         -2.600472726027    -2.742724872747    -0.978998896146    34.968852682000
          CL          2.330467233442    -0.716985080732    -1.470612804245    34.968852682000
          CL         -3.530785736824    -0.049872072018     0.529685956379    34.968852682000

  Nuclear repulsion = 1177.169302951969030

  ==> Basis Set <==

  Basis Set: file /usr/local/software/miniconda2/envs/p4env/share/psi4/basis/6-31g_d_.gbs
    Number of shells: 100
    Number of basis function: 232
    Number of Cartesian functions: 232
    Spherical Harmonics?: false
    Max angular momentum: 2

  ==> DFJKGrad: Density-Fitted SCF Gradients <==

    Gradient:                    1
    J tasked:                  Yes
    K tasked:                  Yes
    wK tasked:                  No
    OpenMP threads:              8
    Integrals threads:           8
    Memory (MB):             14305
    Schwarz Cutoff:          0E+00
    Fitting Condition:       1E-12

   => Auxiliary Basis Set <=

  Basis Set: file /usr/local/software/miniconda2/envs/p4env/share/psi4/basis/cc-pvdz-jkfit.gbs
    Number of shells: 417
    Number of basis function: 1406
    Number of Cartesian functions: 1406
    Spherical Harmonics?: false
    Max angular momentum: 3

