
    -----------------------------------------------------------------------
          Psi4: An Open-Source Ab Initio Electronic Structure Package
                               Psi4 1.2.1 release

                         Git: Rev {HEAD} 406f4de 


    R. M. Parrish, L. A. Burns, D. G. A. Smith, A. C. Simmonett,
    A. E. DePrince III, E. G. Hohenstein, U. Bozkaya, A. Yu. Sokolov,
    R. Di Remigio, R. M. Richard, J. F. Gonthier, A. M. James,
    H. R. McAlexander, A. Kumar, M. Saitow, X. Wang, B. P. Pritchard,
    P. Verma, H. F. Schaefer III, K. Patkowski, R. A. King, E. F. Valeev,
    F. A. Evangelista, J. M. Turney, T. D. Crawford, and C. D. Sherrill,
    J. Chem. Theory Comput. 13(7) pp 3185--3197 (2017).
    (doi: 10.1021/acs.jctc.7b00174)


                         Additional Contributions by
    P. Kraus, H. Kruse, M. H. Lechner, M. C. Schieber, and R. A. Shaw

    -----------------------------------------------------------------------


    Psi4 started on: Thursday, 27 September 2018 12:49PM

    Process ID: 7189
    Host:       wr59
    PSIDATADIR: /usr/local/hpc1/software_molmod/psi4/psi4conda/share/psi4
    Memory:     500.0 MiB
    Threads:    16
    
  ==> Input File <==

--------------------------------------------------------------------------
memory 110 Gb

molecule conf5 {
C    -0.331218164292    -1.210386894393     0.216412654113
O    -1.058032331004     0.758118949585     1.364761265999
C    -0.220549262391     0.144563946140     0.497247564158
C     0.798424511380     0.871879867693    -0.088919131027
H     0.894349457547     1.913916103852     0.147070251063
O    -4.158698558865     2.338466789881     1.691982597078
C     1.697138083591     0.269658441558    -0.951599608140
C     1.577998471531    -1.083163799078    -1.232404527958
C     0.563495023951    -1.817308813420    -0.642052690096
H     0.475040387364    -2.864495022984    -0.852963938482
C    -2.229715552690     1.300004716103     0.816778653038
H    -2.872412817341     0.530584860219     0.411900576683
H    -1.995536573844     2.003368012041     0.023440083223
C    -3.019933982580     2.050721778456     1.863795426208
O    -2.329115170673     2.389750224168     2.933717602588
H    -2.907824350756     2.870294404866     3.518679678057
CL     2.668274255312    -1.898818359331    -2.301891882541
CL    -1.580914347912    -2.160877140089     0.951632992075
CL     2.948346075536     1.241369557153    -1.647882457144
}
set globals {
  reference rhf
  g_convergence gau_tight
  basis 6-31G(d)
}
frequency('hf', dertype=1)
--------------------------------------------------------------------------

  Memory set to 102.445 GiB by Python driver.
gradient() will perform analytic gradient computation.

*** tstart() called on wr59
*** at Thu Sep 27 12:49:18 2018

   => Loading Basis Set <=

    Name: 6-31G(D)
    Role: ORBITAL
    Keyword: BASIS
    atoms 1, 3-4, 7-9, 11, 14 entry C          line   111 file /usr/local/hpc1/software_molmod/psi4/psi4conda/share/psi4/basis/6-31g_d_.gbs 
    atoms 2, 6, 15            entry O          line   145 file /usr/local/hpc1/software_molmod/psi4/psi4conda/share/psi4/basis/6-31g_d_.gbs 
    atoms 5, 10, 12-13, 16    entry H          line    44 file /usr/local/hpc1/software_molmod/psi4/psi4conda/share/psi4/basis/6-31g_d_.gbs 
    atoms 17-19               entry CL         line   340 file /usr/local/hpc1/software_molmod/psi4/psi4conda/share/psi4/basis/6-31g_d_.gbs 

    There are an even number of electrons - assuming singlet.
    Specify the multiplicity in the molecule input block.


         ---------------------------------------------------------
                                   SCF
            by Justin Turney, Rob Parrish, Andy Simmonett
                             and Daniel Smith
                              RHF Reference
                       16 Threads, 104904 MiB Core
         ---------------------------------------------------------

  ==> Geometry <==

    Molecular point group: c1
    Full point group: C1

    Geometry (in Angstrom), charge = 0, multiplicity = 1:

       Center              X                  Y                   Z               Mass       
    ------------   -----------------  -----------------  -----------------  -----------------
         C           -0.331218164292    -1.210386894393     0.216412654113    12.000000000000
         O           -1.058032331004     0.758118949585     1.364761265999    15.994914619560
         C           -0.220549262391     0.144563946140     0.497247564158    12.000000000000
         C            0.798424511380     0.871879867693    -0.088919131027    12.000000000000
         H            0.894349457547     1.913916103852     0.147070251063     1.007825032070
         O           -4.158698558865     2.338466789881     1.691982597078    15.994914619560
         C            1.697138083591     0.269658441558    -0.951599608140    12.000000000000
         C            1.577998471531    -1.083163799078    -1.232404527958    12.000000000000
         C            0.563495023951    -1.817308813420    -0.642052690096    12.000000000000
         H            0.475040387364    -2.864495022984    -0.852963938482     1.007825032070
         C           -2.229715552690     1.300004716103     0.816778653038    12.000000000000
         H           -2.872412817341     0.530584860219     0.411900576683     1.007825032070
         H           -1.995536573844     2.003368012041     0.023440083223     1.007825032070
         C           -3.019933982580     2.050721778456     1.863795426208    12.000000000000
         O           -2.329115170673     2.389750224168     2.933717602588    15.994914619560
         H           -2.907824350756     2.870294404866     3.518679678057     1.007825032070
         CL           2.668274255312    -1.898818359331    -2.301891882541    34.968852682000
         CL          -1.580914347912    -2.160877140089     0.951632992075    34.968852682000
         CL           2.948346075536     1.241369557153    -1.647882457144    34.968852682000

  Running in c1 symmetry.

  Rotational constants: A =      0.02708  B =      0.00820  C =      0.00656 [cm^-1]
  Rotational constants: A =    811.92919  B =    245.86574  C =    196.56815 [MHz]
  Nuclear repulsion = 1167.274177112151392

  Charge       = 0
  Multiplicity = 1
  Electrons    = 128
  Nalpha       = 64
  Nbeta        = 64

  ==> Algorithm <==

  SCF Algorithm Type is DF.
  DIIS enabled.
  MOM disabled.
  Fractional occupation disabled.
  Guess Type is SAD.
  Energy threshold   = 1.00e-08
  Density threshold  = 1.00e-08
  Integral threshold = 0.00e+00

  ==> Primary Basis <==

  Basis Set: 6-31G(D)
    Blend: 6-31G(D)
    Number of shells: 100
    Number of basis function: 232
    Number of Cartesian functions: 232
    Spherical Harmonics?: false
    Max angular momentum: 2

   => Loading Basis Set <=

    Name: (6-31G(D) AUX)
    Role: JKFIT
    Keyword: DF_BASIS_SCF
    atoms 1, 3-4, 7-9, 11, 14 entry C          line   121 file /usr/local/hpc1/software_molmod/psi4/psi4conda/share/psi4/basis/cc-pvdz-jkfit.gbs 
    atoms 2, 6, 15            entry O          line   221 file /usr/local/hpc1/software_molmod/psi4/psi4conda/share/psi4/basis/cc-pvdz-jkfit.gbs 
    atoms 5, 10, 12-13, 16    entry H          line    51 file /usr/local/hpc1/software_molmod/psi4/psi4conda/share/psi4/basis/cc-pvdz-jkfit.gbs 
    atoms 17-19               entry CL         line   667 file /usr/local/hpc1/software_molmod/psi4/psi4conda/share/psi4/basis/cc-pvdz-jkfit.gbs 

  ==> Pre-Iterations <==

   -------------------------------------------------------
    Irrep   Nso     Nmo     Nalpha   Nbeta   Ndocc  Nsocc
   -------------------------------------------------------
     A        232     232       0       0       0       0
   -------------------------------------------------------
    Total     232     232      64      64      64       0
   -------------------------------------------------------

  ==> Integral Setup <==

  ==> DiskDFJK: Density-Fitted J/K Matrices <==

    J tasked:                  Yes
    K tasked:                  Yes
    wK tasked:                  No
    OpenMP threads:             16
    Integrals threads:          16
    Memory (MB):             78678
    Algorithm:                Core
    Integral Cache:           NONE
    Schwarz Cutoff:          1E-12
    Fitting Condition:       1E-12

   => Auxiliary Basis Set <=

  Basis Set: (6-31G(D) AUX)
    Blend: CC-PVDZ-JKFIT
    Number of shells: 417
    Number of basis function: 1406
    Number of Cartesian functions: 1406
    Spherical Harmonics?: false
    Max angular momentum: 3

  Minimum eigenvalue in the overlap matrix is 3.6822555765E-04.
  Using Symmetric Orthogonalization.

  SCF Guess: Superposition of Atomic Densities via on-the-fly atomic UHF.

  ==> Iterations <==

                           Total Energy        Delta E     RMS |[F,P]|

   @DF-RHF iter   0: -1915.11003231344421   -1.91511e+03   1.12310e-01 
   @DF-RHF iter   1: -1908.47173415953125    6.63830e+00   1.22693e-02 
   @DF-RHF iter   2: -1908.78053342053340   -3.08799e-01   6.75056e-03 DIIS
   @DF-RHF iter   3: -1908.85904994808220   -7.85165e-02   2.05654e-03 DIIS
   @DF-RHF iter   4: -1908.87599208465986   -1.69421e-02   7.16257e-04 DIIS
   @DF-RHF iter   5: -1908.87794342950815   -1.95134e-03   2.99832e-04 DIIS
   @DF-RHF iter   6: -1908.87831562494739   -3.72195e-04   1.13822e-04 DIIS
   @DF-RHF iter   7: -1908.87837505180551   -5.94269e-05   3.86190e-05 DIIS
   @DF-RHF iter   8: -1908.87838463486401   -9.58306e-06   1.95885e-05 DIIS
   @DF-RHF iter   9: -1908.87838695528626   -2.32042e-06   8.39337e-06 DIIS
   @DF-RHF iter  10: -1908.87838741943051   -4.64144e-07   2.71214e-06 DIIS
   @DF-RHF iter  11: -1908.87838745427075   -3.48402e-08   9.83021e-07 DIIS
   @DF-RHF iter  12: -1908.87838745831550   -4.04475e-09   3.73929e-07 DIIS
   @DF-RHF iter  13: -1908.87838745892191   -6.06406e-10   1.37837e-07 DIIS
   @DF-RHF iter  14: -1908.87838745904105   -1.19144e-10   4.94476e-08 DIIS
   @DF-RHF iter  15: -1908.87838745905447   -1.34150e-11   2.09731e-08 DIIS
   @DF-RHF iter  16: -1908.87838745905719   -2.72848e-12   9.71472e-09 DIIS

  ==> Post-Iterations <==

    Orbital Energies [Eh]
    ---------------------

    Doubly Occupied:                                                      

       1A   -104.849867     2A   -104.849067     3A   -104.847853  
       4A    -20.631828     5A    -20.616471     6A    -20.568046  
       7A    -11.403169     8A    -11.339263     9A    -11.338483  
      10A    -11.335109    11A    -11.330156    12A    -11.323015  
      13A    -11.285261    14A    -11.277520    15A    -10.582903  
      16A    -10.582335    17A    -10.581074    18A     -8.052352  
      19A     -8.051779    20A     -8.050521    21A     -8.048885  
      22A     -8.048826    23A     -8.048244    24A     -8.048222  
      25A     -8.046980    26A     -8.046975    27A     -1.498131  
      28A     -1.449733    29A     -1.386543    30A     -1.245992  
      31A     -1.188346    32A     -1.155950    33A     -1.115868  
      34A     -1.056865    35A     -1.022896    36A     -0.981728  
      37A     -0.884797    38A     -0.858327    39A     -0.830892  
      40A     -0.746367    41A     -0.740943    42A     -0.725101  
      43A     -0.708370    44A     -0.684375    45A     -0.675812  
      46A     -0.650657    47A     -0.625537    48A     -0.622419  
      49A     -0.610489    50A     -0.592131    51A     -0.577588  
      52A     -0.567769    53A     -0.559077    54A     -0.530303  
      55A     -0.502588    56A     -0.501951    57A     -0.487883  
      58A     -0.478615    59A     -0.471539    60A     -0.466474  
      61A     -0.460693    62A     -0.458598    63A     -0.368591  
      64A     -0.348123  

    Virtual:                                                              

      65A      0.094394    66A      0.103623    67A      0.147318  
      68A      0.174666    69A      0.202839    70A      0.215653  
      71A      0.233489    72A      0.247272    73A      0.281248  
      74A      0.291652    75A      0.306109    76A      0.316720  
      77A      0.331062    78A      0.381712    79A      0.416970  
      80A      0.428509    81A      0.437263    82A      0.466476  
      83A      0.471098    84A      0.478131    85A      0.516081  
      86A      0.527591    87A      0.544858    88A      0.577907  
      89A      0.584275    90A      0.596383    91A      0.601173  
      92A      0.618732    93A      0.622576    94A      0.637755  
      95A      0.651589    96A      0.658568    97A      0.671320  
      98A      0.683713    99A      0.701597   100A      0.718622  
     101A      0.738556   102A      0.763484   103A      0.767314  
     104A      0.783626   105A      0.791921   106A      0.806666  
     107A      0.812031   108A      0.847638   109A      0.852852  
     110A      0.873147   111A      0.888733   112A      0.924084  
     113A      0.938216   114A      0.944298   115A      0.960631  
     116A      0.967842   117A      0.983988   118A      1.008685  
     119A      1.024375   120A      1.041192   121A      1.051070  
     122A      1.057909   123A      1.071446   124A      1.090959  
     125A      1.108256   126A      1.110956   127A      1.116093  
     128A      1.124901   129A      1.129208   130A      1.132715  
     131A      1.136158   132A      1.141372   133A      1.169137  
     134A      1.180874   135A      1.196017   136A      1.201059  
     137A      1.216486   138A      1.227613   139A      1.249862  
     140A      1.255143   141A      1.283612   142A      1.290556  
     143A      1.300280   144A      1.324857   145A      1.334148  
     146A      1.345508   147A      1.364394   148A      1.390129  
     149A      1.414899   150A      1.426086   151A      1.434225  
     152A      1.450680   153A      1.494570   154A      1.559281  
     155A      1.571181   156A      1.595849   157A      1.627301  
     158A      1.652360   159A      1.661172   160A      1.678829  
     161A      1.682943   162A      1.715879   163A      1.750492  
     164A      1.774339   165A      1.783595   166A      1.793729  
     167A      1.821968   168A      1.863119   169A      1.908277  
     170A      1.966989   171A      2.013083   172A      2.028055  
     173A      2.052962   174A      2.059728   175A      2.067418  
     176A      2.097173   177A      2.104483   178A      2.159520  
     179A      2.183337   180A      2.206632   181A      2.219742  
     182A      2.237339   183A      2.261309   184A      2.323235  
     185A      2.340798   186A      2.350977   187A      2.384962  
     188A      2.403558   189A      2.414070   190A      2.420557  
     191A      2.455843   192A      2.476036   193A      2.533739  
     194A      2.544905   195A      2.581778   196A      2.595863  
     197A      2.636195   198A      2.706219   199A      2.729847  
     200A      2.770466   201A      2.834762   202A      2.882234  
     203A      2.930778   204A      2.969096   205A      3.002297  
     206A      3.020017   207A      3.053027   208A      3.068022  
     209A      3.089653   210A      3.116809   211A      3.177473  
     212A      3.192761   213A      3.248626   214A      3.323053  
     215A      3.456119   216A      3.481684   217A      3.541831  
     218A      3.709844   219A      4.259440   220A      4.424098  
     221A      4.460660   222A      4.483848   223A      4.517455  
     224A      4.579486   225A      4.630687   226A      4.655180  
     227A      4.721322   228A      4.744876   229A      4.797739  
     230A      4.874968   231A      4.924675   232A      5.151274  

    Final Occupation by Irrep:
              A 
    DOCC [    64 ]

  Energy converged.

  @DF-RHF Final Energy: -1908.87838745905719

   => Energetics <=

    Nuclear Repulsion Energy =           1167.2741771121513921
    One-Electron Energy =               -4952.2605959597804031
    Two-Electron Energy =                1876.1080313885718169
    Total Energy =                      -1908.8783874590571941



Properties will be evaluated at   0.000000,   0.000000,   0.000000 [a0]

Properties computed using the SCF density matrix

  Nuclear Dipole Moment: [e a0]
     X:    -9.7365      Y:     6.7815      Z:     5.8184

  Electronic Dipole Moment: [e a0]
     X:     9.7183      Y:    -6.5075      Z:    -5.7067

  Dipole Moment: [e a0]
     X:    -0.0181      Y:     0.2740      Z:     0.1117     Total:     0.2965

  Dipole Moment: [D]
     X:    -0.0461      Y:     0.6965      Z:     0.2839     Total:     0.7536


*** tstop() called on wr59 at Thu Sep 27 12:49:25 2018
Module time:
	user time   =      95.03 seconds =       1.58 minutes
	system time =       2.51 seconds =       0.04 minutes
	total time  =          7 seconds =       0.12 minutes
Total time:
	user time   =      95.03 seconds =       1.58 minutes
	system time =       2.51 seconds =       0.04 minutes
	total time  =          7 seconds =       0.12 minutes

*** tstart() called on wr59
*** at Thu Sep 27 12:49:25 2018


         ------------------------------------------------------------
                                   SCF GRAD                          
                          Rob Parrish, Justin Turney,                
                       Andy Simmonett, and Alex Sokolov              
         ------------------------------------------------------------

  ==> Geometry <==

    Molecular point group: c1
    Full point group: C1

    Geometry (in Angstrom), charge = 0, multiplicity = 1:

       Center              X                  Y                   Z               Mass       
    ------------   -----------------  -----------------  -----------------  -----------------
         C           -0.331218164292    -1.210386894393     0.216412654113    12.000000000000
         O           -1.058032331004     0.758118949585     1.364761265999    15.994914619560
         C           -0.220549262391     0.144563946140     0.497247564158    12.000000000000
         C            0.798424511380     0.871879867693    -0.088919131027    12.000000000000
         H            0.894349457547     1.913916103852     0.147070251063     1.007825032070
         O           -4.158698558865     2.338466789881     1.691982597078    15.994914619560
         C            1.697138083591     0.269658441558    -0.951599608140    12.000000000000
         C            1.577998471531    -1.083163799078    -1.232404527958    12.000000000000
         C            0.563495023951    -1.817308813420    -0.642052690096    12.000000000000
         H            0.475040387364    -2.864495022984    -0.852963938482     1.007825032070
         C           -2.229715552690     1.300004716103     0.816778653038    12.000000000000
         H           -2.872412817341     0.530584860219     0.411900576683     1.007825032070
         H           -1.995536573844     2.003368012041     0.023440083223     1.007825032070
         C           -3.019933982580     2.050721778456     1.863795426208    12.000000000000
         O           -2.329115170673     2.389750224168     2.933717602588    15.994914619560
         H           -2.907824350756     2.870294404866     3.518679678057     1.007825032070
         CL           2.668274255312    -1.898818359331    -2.301891882541    34.968852682000
         CL          -1.580914347912    -2.160877140089     0.951632992075    34.968852682000
         CL           2.948346075536     1.241369557153    -1.647882457144    34.968852682000

  Nuclear repulsion = 1167.274177112151392

  ==> Basis Set <==

  Basis Set: 6-31G(D)
    Blend: 6-31G(D)
    Number of shells: 100
    Number of basis function: 232
    Number of Cartesian functions: 232
    Spherical Harmonics?: false
    Max angular momentum: 2

  ==> DFJKGrad: Density-Fitted SCF Gradients <==

    Gradient:                    1
    J tasked:                  Yes
    K tasked:                  Yes
    wK tasked:                  No
    OpenMP threads:             16
    Integrals threads:          16
    Memory (MB):             78678
    Schwarz Cutoff:          0E+00
    Fitting Condition:       1E-12

   => Auxiliary Basis Set <=

  Basis Set: (6-31G(D) AUX)
    Blend: CC-PVDZ-JKFIT
    Number of shells: 417
    Number of basis function: 1406
    Number of Cartesian functions: 1406
    Spherical Harmonics?: false
    Max angular momentum: 3


  -Total Gradient:
     Atom            X                  Y                   Z
    ------   -----------------  -----------------  -----------------
       1        0.000000513856    -0.000000554360    -0.000001024649
       2       -0.000001140071     0.000000714725    -0.000000258902
       3        0.000000850531     0.000000529704     0.000000062889
       4       -0.000000332820    -0.000000195216    -0.000000164497
       5        0.000000244050    -0.000000391457    -0.000000434016
       6       -0.000005360708    -0.000001458743    -0.000003013853
       7       -0.000000110040    -0.000000087389     0.000000024150
       8        0.000000287817     0.000000541918     0.000000487848
       9       -0.000000901515     0.000000048444     0.000000458698
      10       -0.000000019172     0.000000579777     0.000000175119
      11        0.000000555801    -0.000001739541     0.000001367875
      12       -0.000001220463     0.000000337164    -0.000000912195
      13       -0.000000970177    -0.000000213162     0.000000806905
      14        0.000010820392     0.000003457979     0.000005015112
      15       -0.000002482722    -0.000001399404    -0.000002375707
      16       -0.000000139982    -0.000000205653    -0.000000288481
      17       -0.000000121020    -0.000000168991    -0.000000116427
      18       -0.000000228895     0.000000165807     0.000000029336
      19       -0.000000244664     0.000000038430     0.000000160739


*** tstop() called on wr59 at Thu Sep 27 12:49:30 2018
Module time:
	user time   =      66.99 seconds =       1.12 minutes
	system time =       1.47 seconds =       0.02 minutes
	total time  =          5 seconds =       0.08 minutes
Total time:
	user time   =     162.05 seconds =       2.70 minutes
	system time =       3.98 seconds =       0.07 minutes
	total time  =         12 seconds =       0.20 minutes

  Based on options and gradient (rms=4.33E-06), recommend projecting translations and projecting rotations.
hessian() will perform frequency computation by finite difference of analytic gradients.

-------------------------------------------------------------

  Using finite-differences of gradients to determine vibrational frequencies and 
  normal modes.  Resulting frequencies are only valid at stationary points.
	Generating geometries for use with 3-point formula.
	Displacement size will be 5.00e-03.
	Number of atoms is 19.
	Number of irreps is 1.
	Number of SALCS is 51.
	Translations projected? 1. Rotations projected? 1.
	Index of salcs per irrep:
	 1 :  0  1  2  3  4  5  6  7  8  9  10  11  12  13  14  15  16  17  18  19  20  21  22  23  24  25  26  27  28  29  30  31  32  33  34  35  36  37  38  39  40  41  42  43  44  45  46  47  48  49  50 
	Number of SALC's per irrep:
		 Irrep 1: 51
	Number of geometries (including reference) is 103.
	Number of displacements per irrep:
	  Irrep 1: 102

  //>>>>>>>>>>>>>>>>>>>>>>>>>>>>>>>>>>>//
  //   Loading displacement 1 of 103   //
  //<<<<<<<<<<<<<<<<<<<<<<<<<<<<<<<<<<<//
gradient() will perform analytic gradient computation.

*** tstart() called on wr59
*** at Thu Sep 27 12:49:30 2018

   => Loading Basis Set <=

    Name: 6-31G(D)
    Role: ORBITAL
    Keyword: BASIS
    atoms 1, 3-4, 7-9, 11, 14 entry C          line   111 file /usr/local/hpc1/software_molmod/psi4/psi4conda/share/psi4/basis/6-31g_d_.gbs 
    atoms 2, 6, 15            entry O          line   145 file /usr/local/hpc1/software_molmod/psi4/psi4conda/share/psi4/basis/6-31g_d_.gbs 
    atoms 5, 10, 12-13, 16    entry H          line    44 file /usr/local/hpc1/software_molmod/psi4/psi4conda/share/psi4/basis/6-31g_d_.gbs 
    atoms 17-19               entry CL         line   340 file /usr/local/hpc1/software_molmod/psi4/psi4conda/share/psi4/basis/6-31g_d_.gbs 


         ---------------------------------------------------------
                                   SCF
            by Justin Turney, Rob Parrish, Andy Simmonett
                             and Daniel Smith
                              RHF Reference
                       16 Threads, 104904 MiB Core
         ---------------------------------------------------------

  ==> Geometry <==

    Molecular point group: c1
    Full point group: C1

    Geometry (in Angstrom), charge = 0, multiplicity = 1:

       Center              X                  Y                   Z               Mass       
    ------------   -----------------  -----------------  -----------------  -----------------
         C           -0.331957921538    -1.210388462046     0.216421642848    12.000000000000
         O           -1.057997006158     0.758118289365     1.364760126169    15.994914619560
         C           -0.220511523833     0.144565181962     0.497247413497    12.000000000000
         C            0.798453660017     0.871886440250    -0.088927592314    12.000000000000
         H            0.894370116431     1.913925058418     0.147054722677     1.007825032070
         O           -4.158676218399     2.338440488457     1.691982257301    15.994914619560
         C            1.697169561644     0.269667489421    -0.951607370679    12.000000000000
         C            1.578041062116    -1.083157630316    -1.232403134786    12.000000000000
         C            0.563546280433    -1.817307914364    -0.642042958076    12.000000000000
         H            0.475100268678    -2.864496277182    -0.852947132624     1.007825032070
         C           -2.229687022526     1.299990030909     0.816778172501    12.000000000000
         H           -2.872378836820     0.530561808709     0.411907343463     1.007825032070
         H           -1.995517154294     2.003350301643     0.023434231296     1.007825032070
         C           -3.019908456930     2.050706779039     1.863792903365    12.000000000000
         O           -2.329088883307     2.389748314906     2.933710440022    15.994914619560
         H           -2.907800289096     2.870291091827     3.518671466775     1.007825032070
         CL           2.668320351924    -1.898809335639    -2.301889092532    34.968852682000
         CL          -1.580854361486    -2.160885147437     0.951652550760    34.968852682000
         CL           2.948366385413     1.241385309599    -1.647900931987    34.968852682000

  Running in c1 symmetry.

  Rotational constants: A =      0.02708  B =      0.00820  C =      0.00656 [cm^-1]
  Rotational constants: A =    811.92079  B =    245.86593  C =    196.56756 [MHz]
  Nuclear repulsion = 1167.273559925380141

  Charge       = 0
  Multiplicity = 1
  Electrons    = 128
  Nalpha       = 64
  Nbeta        = 64

  ==> Algorithm <==

  SCF Algorithm Type is DF.
  DIIS enabled.
  MOM disabled.
  Fractional occupation disabled.
  Guess Type is SAD.
  Energy threshold   = 1.00e-08
  Density threshold  = 1.00e-08
  Integral threshold = 0.00e+00

  ==> Primary Basis <==

  Basis Set: 6-31G(D)
    Blend: 6-31G(D)
    Number of shells: 100
    Number of basis function: 232
    Number of Cartesian functions: 232
    Spherical Harmonics?: false
    Max angular momentum: 2

   => Loading Basis Set <=

    Name: (6-31G(D) AUX)
    Role: JKFIT
    Keyword: DF_BASIS_SCF
    atoms 1, 3-4, 7-9, 11, 14 entry C          line   121 file /usr/local/hpc1/software_molmod/psi4/psi4conda/share/psi4/basis/cc-pvdz-jkfit.gbs 
    atoms 2, 6, 15            entry O          line   221 file /usr/local/hpc1/software_molmod/psi4/psi4conda/share/psi4/basis/cc-pvdz-jkfit.gbs 
    atoms 5, 10, 12-13, 16    entry H          line    51 file /usr/local/hpc1/software_molmod/psi4/psi4conda/share/psi4/basis/cc-pvdz-jkfit.gbs 
    atoms 17-19               entry CL         line   667 file /usr/local/hpc1/software_molmod/psi4/psi4conda/share/psi4/basis/cc-pvdz-jkfit.gbs 

  ==> Pre-Iterations <==

   -------------------------------------------------------
    Irrep   Nso     Nmo     Nalpha   Nbeta   Ndocc  Nsocc
   -------------------------------------------------------
     A        232     232       0       0       0       0
   -------------------------------------------------------
    Total     232     232      64      64      64       0
   -------------------------------------------------------

  ==> Integral Setup <==

  ==> DiskDFJK: Density-Fitted J/K Matrices <==

    J tasked:                  Yes
    K tasked:                  Yes
    wK tasked:                  No
    OpenMP threads:             16
    Integrals threads:          16
    Memory (MB):             78678
    Algorithm:                Core
    Integral Cache:           NONE
    Schwarz Cutoff:          1E-12
    Fitting Condition:       1E-12

   => Auxiliary Basis Set <=

  Basis Set: (6-31G(D) AUX)
    Blend: CC-PVDZ-JKFIT
    Number of shells: 417
    Number of basis function: 1406
    Number of Cartesian functions: 1406
    Spherical Harmonics?: false
    Max angular momentum: 3

  Minimum eigenvalue in the overlap matrix is 3.6857419462E-04.
  Using Symmetric Orthogonalization.

  SCF Guess: Superposition of Atomic Densities via on-the-fly atomic UHF.

  ==> Iterations <==

                           Total Energy        Delta E     RMS |[F,P]|

   @DF-RHF iter   0: -1916.89508640439522   -1.91690e+03   1.18932e-01 
   @DF-RHF iter   1: -1908.44630951377144    8.44878e+00   1.43683e-02 
   @DF-RHF iter   2: -1908.75643649385324   -3.10127e-01   8.85673e-03 DIIS
   @DF-RHF iter   3: -1908.86560580487344   -1.09169e-01   1.94355e-03 DIIS
   @DF-RHF iter   4: -1908.87666074902609   -1.10549e-02   6.80453e-04 DIIS
   @DF-RHF iter   5: -1908.87811352406425   -1.45278e-03   2.66149e-04 DIIS
   @DF-RHF iter   6: -1908.87835015445057   -2.36630e-04   8.76435e-05 DIIS
   @DF-RHF iter   7: -1908.87838394184269   -3.37874e-05   2.52846e-05 DIIS
   @DF-RHF iter   8: -1908.87838648671595   -2.54487e-06   1.01831e-05 DIIS
   @DF-RHF iter   9: -1908.87838687377393   -3.87058e-07   3.61661e-06 DIIS
   @DF-RHF iter  10: -1908.87838692638502   -5.26111e-08   1.25615e-06 DIIS
   @DF-RHF iter  11: -1908.87838693295294   -6.56792e-09   5.43431e-07 DIIS
   @DF-RHF iter  12: -1908.87838693392155   -9.68612e-10   1.83246e-07 DIIS
   @DF-RHF iter  13: -1908.87838693407252   -1.50976e-10   5.18316e-08 DIIS
   @DF-RHF iter  14: -1908.87838693409549   -2.29647e-11   2.52933e-08 DIIS
   @DF-RHF iter  15: -1908.87838693409844   -2.95586e-12   1.28929e-08 DIIS
   @DF-RHF iter  16: -1908.87838693409935   -9.09495e-13   4.78510e-09 DIIS

  ==> Post-Iterations <==

    Orbital Energies [Eh]
    ---------------------

    Doubly Occupied:                                                      

       1A   -104.849928     2A   -104.849058     3A   -104.847841  
       4A    -20.631824     5A    -20.616440     6A    -20.568042  
       7A    -11.403164     8A    -11.339246     9A    -11.338474  
      10A    -11.335092    11A    -11.330159    12A    -11.323007  
      13A    -11.285288    14A    -11.277507    15A    -10.582972  
      16A    -10.582326    17A    -10.581062    18A     -8.052422  
      19A     -8.051770    20A     -8.050509    21A     -8.048953  
      22A     -8.048894    23A     -8.048236    24A     -8.048213  
      25A     -8.046968    26A     -8.046963    27A     -1.498127  
      28A     -1.449718    29A     -1.386539    30A     -1.245952  
      31A     -1.188423    32A     -1.155937    33A     -1.115897  
      34A     -1.056817    35A     -1.022859    36A     -0.981705  
      37A     -0.884771    38A     -0.858321    39A     -0.830858  
      40A     -0.746342    41A     -0.740903    42A     -0.725093  
      43A     -0.708363    44A     -0.684365    45A     -0.675826  
      46A     -0.650587    47A     -0.625525    48A     -0.622402  
      49A     -0.610554    50A     -0.592110    51A     -0.577576  
      52A     -0.567758    53A     -0.559141    54A     -0.530358  
      55A     -0.502580    56A     -0.501947    57A     -0.487881  
      58A     -0.478642    59A     -0.471524    60A     -0.466468  
      61A     -0.460682    62A     -0.458587    63A     -0.368535  
      64A     -0.348091  

    Virtual:                                                              

      65A      0.094344    66A      0.103663    67A      0.147377  
      68A      0.174670    69A      0.202942    70A      0.215655  
      71A      0.233497    72A      0.247271    73A      0.281254  
      74A      0.291651    75A      0.306096    76A      0.316721  
      77A      0.331055    78A      0.381707    79A      0.416984  
      80A      0.428488    81A      0.437138    82A      0.466468  
      83A      0.471075    84A      0.478135    85A      0.516090  
      86A      0.527546    87A      0.544855    88A      0.577855  
      89A      0.584265    90A      0.596391    91A      0.601178  
      92A      0.618718    93A      0.622608    94A      0.637710  
      95A      0.651589    96A      0.658575    97A      0.671292  
      98A      0.683702    99A      0.701682   100A      0.718650  
     101A      0.738560   102A      0.763488   103A      0.767329  
     104A      0.783619   105A      0.791918   106A      0.806654  
     107A      0.812040   108A      0.847620   109A      0.852856  
     110A      0.873173   111A      0.888734   112A      0.924083  
     113A      0.938217   114A      0.944302   115A      0.960604  
     116A      0.967860   117A      0.984028   118A      1.008626  
     119A      1.024325   120A      1.041219   121A      1.051041  
     122A      1.057954   123A      1.071441   124A      1.090980  
     125A      1.108275   126A      1.110950   127A      1.116089  
     128A      1.124862   129A      1.129187   130A      1.132719  
     131A      1.136152   132A      1.141374   133A      1.169075  
     134A      1.180864   135A      1.195995   136A      1.201067  
     137A      1.216516   138A      1.227616   139A      1.249806  
     140A      1.255146   141A      1.283679   142A      1.290538  
     143A      1.300273   144A      1.324909   145A      1.334170  
     146A      1.345523   147A      1.364385   148A      1.390201  
     149A      1.414862   150A      1.426086   151A      1.434287  
     152A      1.450722   153A      1.494464   154A      1.559258  
     155A      1.571216   156A      1.595872   157A      1.627278  
     158A      1.652369   159A      1.661210   160A      1.678914  
     161A      1.682749   162A      1.715935   163A      1.750500  
     164A      1.774346   165A      1.783580   166A      1.793769  
     167A      1.822022   168A      1.863049   169A      1.908268  
     170A      1.966990   171A      2.013085   172A      2.028025  
     173A      2.052878   174A      2.059636   175A      2.067281  
     176A      2.097269   177A      2.104476   178A      2.159532  
     179A      2.183511   180A      2.206634   181A      2.219774  
     182A      2.237351   183A      2.261274   184A      2.323255  
     185A      2.340814   186A      2.350993   187A      2.384841  
     188A      2.403478   189A      2.413994   190A      2.420474  
     191A      2.455814   192A      2.475999   193A      2.533712  
     194A      2.544866   195A      2.581498   196A      2.595906  
     197A      2.636186   198A      2.706189   199A      2.729904  
     200A      2.770466   201A      2.834818   202A      2.882112  
     203A      2.930777   204A      2.968922   205A      3.002334  
     206A      3.019996   207A      3.052846   208A      3.067772  
     209A      3.089416   210A      3.116782   211A      3.177446  
     212A      3.192844   213A      3.248621   214A      3.323063  
     215A      3.456126   216A      3.481617   217A      3.541821  
     218A      3.709637   219A      4.259430   220A      4.424109  
     221A      4.460547   222A      4.483778   223A      4.517434  
     224A      4.579470   225A      4.630625   226A      4.655136  
     227A      4.721307   228A      4.744859   229A      4.797822  
     230A      4.874942   231A      4.924684   232A      5.151133  

    Final Occupation by Irrep:
              A 
    DOCC [    64 ]

  Energy converged.

  @DF-RHF Final Energy: -1908.87838693409935

   => Energetics <=

    Nuclear Repulsion Energy =           1167.2735599253801411
    One-Electron Energy =               -4952.2596625758469600
    Two-Electron Energy =                1876.1077157163674656
    Total Energy =                      -1908.8783869340993533



Properties will be evaluated at   0.000000,   0.000000,   0.000000 [a0]

Properties computed using the SCF density matrix

  Nuclear Dipole Moment: [e a0]
     X:    -9.7364      Y:     6.7815      Z:     5.8184

  Electronic Dipole Moment: [e a0]
     X:     9.7176      Y:    -6.5081      Z:    -5.7062

  Dipole Moment: [e a0]
     X:    -0.0188      Y:     0.2734      Z:     0.1122     Total:     0.2961

  Dipole Moment: [D]
     X:    -0.0478      Y:     0.6948      Z:     0.2853     Total:     0.7526


*** tstop() called on wr59 at Thu Sep 27 12:49:38 2018
Module time:
	user time   =     104.14 seconds =       1.74 minutes
	system time =       2.33 seconds =       0.04 minutes
	total time  =          8 seconds =       0.13 minutes
Total time:
	user time   =     266.41 seconds =       4.44 minutes
	system time =       6.31 seconds =       0.11 minutes
	total time  =         20 seconds =       0.33 minutes

*** tstart() called on wr59
*** at Thu Sep 27 12:49:38 2018


         ------------------------------------------------------------
                                   SCF GRAD                          
                          Rob Parrish, Justin Turney,                
                       Andy Simmonett, and Alex Sokolov              
         ------------------------------------------------------------

  ==> Geometry <==

    Molecular point group: c1
    Full point group: C1

    Geometry (in Angstrom), charge = 0, multiplicity = 1:

       Center              X                  Y                   Z               Mass       
    ------------   -----------------  -----------------  -----------------  -----------------
         C           -0.331957921538    -1.210388462046     0.216421642848    12.000000000000
         O           -1.057997006158     0.758118289365     1.364760126169    15.994914619560
         C           -0.220511523833     0.144565181962     0.497247413497    12.000000000000
         C            0.798453660017     0.871886440250    -0.088927592314    12.000000000000
         H            0.894370116431     1.913925058418     0.147054722677     1.007825032070
         O           -4.158676218399     2.338440488457     1.691982257301    15.994914619560
         C            1.697169561644     0.269667489421    -0.951607370679    12.000000000000
         C            1.578041062116    -1.083157630316    -1.232403134786    12.000000000000
         C            0.563546280433    -1.817307914364    -0.642042958076    12.000000000000
         H            0.475100268678    -2.864496277182    -0.852947132624     1.007825032070
         C           -2.229687022526     1.299990030909     0.816778172501    12.000000000000
         H           -2.872378836820     0.530561808709     0.411907343463     1.007825032070
         H           -1.995517154294     2.003350301643     0.023434231296     1.007825032070
         C           -3.019908456930     2.050706779039     1.863792903365    12.000000000000
         O           -2.329088883307     2.389748314906     2.933710440022    15.994914619560
         H           -2.907800289096     2.870291091827     3.518671466775     1.007825032070
         CL           2.668320351924    -1.898809335639    -2.301889092532    34.968852682000
         CL          -1.580854361486    -2.160885147437     0.951652550760    34.968852682000
         CL           2.948366385413     1.241385309599    -1.647900931987    34.968852682000

  Nuclear repulsion = 1167.273559925380141

  ==> Basis Set <==

  Basis Set: 6-31G(D)
    Blend: 6-31G(D)
    Number of shells: 100
    Number of basis function: 232
    Number of Cartesian functions: 232
    Spherical Harmonics?: false
    Max angular momentum: 2

  ==> DFJKGrad: Density-Fitted SCF Gradients <==

    Gradient:                    1
    J tasked:                  Yes
    K tasked:                  Yes
    wK tasked:                  No
    OpenMP threads:             16
    Integrals threads:          16
    Memory (MB):             78678
    Schwarz Cutoff:          0E+00
    Fitting Condition:       1E-12

   => Auxiliary Basis Set <=

  Basis Set: (6-31G(D) AUX)
    Blend: CC-PVDZ-JKFIT
    Number of shells: 417
    Number of basis function: 1406
    Number of Cartesian functions: 1406
    Spherical Harmonics?: false
    Max angular momentum: 3


  -Total Gradient:
     Atom            X                  Y                   Z
    ------   -----------------  -----------------  -----------------
       1       -0.000707935167    -0.000052397169     0.000371338261
       2        0.000008246449    -0.000053625019    -0.000023027162
       3        0.000181179961     0.000112213590    -0.000017226237
       4       -0.000044999691     0.000034260038     0.000035598438
       5        0.000001509077     0.000003920646    -0.000007617057
       6       -0.000002826763    -0.000002045709    -0.000004047244
       7        0.000020420927    -0.000051955283    -0.000028560948
       8        0.000065920916     0.000051767636    -0.000043722189
       9        0.000309941436    -0.000148499964    -0.000195636181
      10       -0.000010620926     0.000006010689     0.000003742415
      11       -0.000010453357    -0.000004242595    -0.000005493934
      12        0.000000028254     0.000000543141     0.000000639376
      13        0.000000074717    -0.000000183683     0.000001692884
      14        0.000009881908     0.000003721227     0.000007132412
      15       -0.000001923317    -0.000001567170    -0.000003292338
      16       -0.000000095506    -0.000000367483     0.000000096372
      17       -0.000003820729     0.000002923728    -0.000002922786
      18        0.000185926172     0.000099361991    -0.000089716802
      19       -0.000000454385     0.000000161478     0.000001022860


*** tstop() called on wr59 at Thu Sep 27 12:49:43 2018
Module time:
	user time   =      70.22 seconds =       1.17 minutes
	system time =       1.60 seconds =       0.03 minutes
	total time  =          5 seconds =       0.08 minutes
Total time:
	user time   =     336.67 seconds =       5.61 minutes
	system time =       7.91 seconds =       0.13 minutes
	total time  =         25 seconds =       0.42 minutes

  //>>>>>>>>>>>>>>>>>>>>>>>>>>>>>>>>>>>//
  //   Loading displacement 2 of 103   //
  //<<<<<<<<<<<<<<<<<<<<<<<<<<<<<<<<<<<//
gradient() will perform analytic gradient computation.

*** tstart() called on wr59
*** at Thu Sep 27 12:49:43 2018

   => Loading Basis Set <=

    Name: 6-31G(D)
    Role: ORBITAL
    Keyword: BASIS
    atoms 1, 3-4, 7-9, 11, 14 entry C          line   111 file /usr/local/hpc1/software_molmod/psi4/psi4conda/share/psi4/basis/6-31g_d_.gbs 
    atoms 2, 6, 15            entry O          line   145 file /usr/local/hpc1/software_molmod/psi4/psi4conda/share/psi4/basis/6-31g_d_.gbs 
    atoms 5, 10, 12-13, 16    entry H          line    44 file /usr/local/hpc1/software_molmod/psi4/psi4conda/share/psi4/basis/6-31g_d_.gbs 
    atoms 17-19               entry CL         line   340 file /usr/local/hpc1/software_molmod/psi4/psi4conda/share/psi4/basis/6-31g_d_.gbs 


         ---------------------------------------------------------
                                   SCF
            by Justin Turney, Rob Parrish, Andy Simmonett
                             and Daniel Smith
                              RHF Reference
                       16 Threads, 104904 MiB Core
         ---------------------------------------------------------

  ==> Geometry <==

    Molecular point group: c1
    Full point group: C1

    Geometry (in Angstrom), charge = 0, multiplicity = 1:

       Center              X                  Y                   Z               Mass       
    ------------   -----------------  -----------------  -----------------  -----------------
         C           -0.330478407046    -1.210385326740     0.216403665378    12.000000000000
         O           -1.058067655850     0.758119609805     1.364762405829    15.994914619560
         C           -0.220587000949     0.144562710318     0.497247714819    12.000000000000
         C            0.798395362744     0.871873295136    -0.088910669740    12.000000000000
         H            0.894328798663     1.913907149286     0.147085779449     1.007825032070
         O           -4.158720899331     2.338493091306     1.691982936855    15.994914619560
         C            1.697106605538     0.269649393696    -0.951591845601    12.000000000000
         C            1.577955880947    -1.083169967840    -1.232405921130    12.000000000000
         C            0.563443767469    -1.817309712476    -0.642062422116    12.000000000000
         H            0.474980506051    -2.864493768786    -0.852980744340     1.007825032070
         C           -2.229744082853     1.300019401297     0.816779133575    12.000000000000
         H           -2.872446797862     0.530607911729     0.411893809903     1.007825032070
         H           -1.995555993394     2.003385722439     0.023445935150     1.007825032070
         C           -3.019959508230     2.050736777873     1.863797949051    12.000000000000
         O           -2.329141458038     2.389752133430     2.933724765154    15.994914619560
         H           -2.907848412416     2.870297717905     3.518687889339     1.007825032070
         CL           2.668228158700    -1.898827383023    -2.301894672550    34.968852682000
         CL          -1.580974334338    -2.160869132741     0.951613433390    34.968852682000
         CL           2.948325765659     1.241353804707    -1.647863982301    34.968852682000

  Running in c1 symmetry.

  Rotational constants: A =      0.02708  B =      0.00820  C =      0.00656 [cm^-1]
  Rotational constants: A =    811.93759  B =    245.86554  C =    196.56874 [MHz]
  Nuclear repulsion = 1167.274795260667588

  Charge       = 0
  Multiplicity = 1
  Electrons    = 128
  Nalpha       = 64
  Nbeta        = 64

  ==> Algorithm <==

  SCF Algorithm Type is DF.
  DIIS enabled.
  MOM disabled.
  Fractional occupation disabled.
  Guess Type is SAD.
  Energy threshold   = 1.00e-08
  Density threshold  = 1.00e-08
  Integral threshold = 0.00e+00

  ==> Primary Basis <==

  Basis Set: 6-31G(D)
    Blend: 6-31G(D)
    Number of shells: 100
    Number of basis function: 232
    Number of Cartesian functions: 232
    Spherical Harmonics?: false
    Max angular momentum: 2

   => Loading Basis Set <=

    Name: (6-31G(D) AUX)
    Role: JKFIT
    Keyword: DF_BASIS_SCF
    atoms 1, 3-4, 7-9, 11, 14 entry C          line   121 file /usr/local/hpc1/software_molmod/psi4/psi4conda/share/psi4/basis/cc-pvdz-jkfit.gbs 
    atoms 2, 6, 15            entry O          line   221 file /usr/local/hpc1/software_molmod/psi4/psi4conda/share/psi4/basis/cc-pvdz-jkfit.gbs 
    atoms 5, 10, 12-13, 16    entry H          line    51 file /usr/local/hpc1/software_molmod/psi4/psi4conda/share/psi4/basis/cc-pvdz-jkfit.gbs 
    atoms 17-19               entry CL         line   667 file /usr/local/hpc1/software_molmod/psi4/psi4conda/share/psi4/basis/cc-pvdz-jkfit.gbs 

  ==> Pre-Iterations <==

   -------------------------------------------------------
    Irrep   Nso     Nmo     Nalpha   Nbeta   Ndocc  Nsocc
   -------------------------------------------------------
     A        232     232       0       0       0       0
   -------------------------------------------------------
    Total     232     232      64      64      64       0
   -------------------------------------------------------

  ==> Integral Setup <==

  ==> DiskDFJK: Density-Fitted J/K Matrices <==

    J tasked:                  Yes
    K tasked:                  Yes
    wK tasked:                  No
    OpenMP threads:             16
    Integrals threads:          16
    Memory (MB):             78678
    Algorithm:                Core
    Integral Cache:           NONE
    Schwarz Cutoff:          1E-12
    Fitting Condition:       1E-12

   => Auxiliary Basis Set <=

  Basis Set: (6-31G(D) AUX)
    Blend: CC-PVDZ-JKFIT
    Number of shells: 417
    Number of basis function: 1406
    Number of Cartesian functions: 1406
    Spherical Harmonics?: false
    Max angular momentum: 3

  Minimum eigenvalue in the overlap matrix is 3.6788094188E-04.
  Using Symmetric Orthogonalization.

  SCF Guess: Superposition of Atomic Densities via on-the-fly atomic UHF.

  ==> Iterations <==

                           Total Energy        Delta E     RMS |[F,P]|

   @DF-RHF iter   0: -1914.18195974084347   -1.91418e+03   1.14452e-01 
   @DF-RHF iter   1: -1908.52182781730335    5.66013e+00   1.22830e-02 
   @DF-RHF iter   2: -1908.80835217123968   -2.86524e-01   6.25889e-03 DIIS
   @DF-RHF iter   3: -1908.86616222816383   -5.78101e-02   2.15320e-03 DIIS
   @DF-RHF iter   4: -1908.87740423436571   -1.12420e-02   5.78342e-04 DIIS
   @DF-RHF iter   5: -1908.87824013501609   -8.35901e-04   1.92570e-04 DIIS
   @DF-RHF iter   6: -1908.87836234785345   -1.22213e-04   7.81139e-05 DIIS
   @DF-RHF iter   7: -1908.87838389844751   -2.15506e-05   2.49504e-05 DIIS
   @DF-RHF iter   8: -1908.87838641701592   -2.51857e-06   1.02938e-05 DIIS
   @DF-RHF iter   9: -1908.87838682407846   -4.07063e-07   4.20806e-06 DIIS
   @DF-RHF iter  10: -1908.87838691348520   -8.94067e-08   1.52583e-06 DIIS
   @DF-RHF iter  11: -1908.87838692959372   -1.61085e-08   6.90854e-07 DIIS
   @DF-RHF iter  12: -1908.87838693276149   -3.16777e-09   2.99314e-07 DIIS
   @DF-RHF iter  13: -1908.87838693336107   -5.99584e-10   1.19174e-07 DIIS
   @DF-RHF iter  14: -1908.87838693348158   -1.20508e-10   5.05230e-08 DIIS
   @DF-RHF iter  15: -1908.87838693349386   -1.22782e-11   2.04330e-08 DIIS
   @DF-RHF iter  16: -1908.87838693349636   -2.50111e-12   9.19166e-09 DIIS

  ==> Post-Iterations <==

    Orbital Energies [Eh]
    ---------------------

    Doubly Occupied:                                                      

       1A   -104.849806     2A   -104.849076     3A   -104.847865  
       4A    -20.631832     5A    -20.616502     6A    -20.568051  
       7A    -11.403175     8A    -11.339280     9A    -11.338491  
      10A    -11.335127    11A    -11.330153    12A    -11.323022  
      13A    -11.285234    14A    -11.277533    15A    -10.582835  
      16A    -10.582344    17A    -10.581086    18A     -8.052283  
      19A     -8.051788    20A     -8.050533    21A     -8.048817  
      22A     -8.048758    23A     -8.048253    24A     -8.048231  
      25A     -8.046992    26A     -8.046987    27A     -1.498136  
      28A     -1.449749    29A     -1.386547    30A     -1.246032  
      31A     -1.188270    32A     -1.155964    33A     -1.115839  
      34A     -1.056913    35A     -1.022932    36A     -0.981750  
      37A     -0.884823    38A     -0.858333    39A     -0.830926  
      40A     -0.746392    41A     -0.740984    42A     -0.725108  
      43A     -0.708378    44A     -0.684385    45A     -0.675798  
      46A     -0.650728    47A     -0.625550    48A     -0.622436  
      49A     -0.610424    50A     -0.592152    51A     -0.577600  
      52A     -0.567781    53A     -0.559012    54A     -0.530249  
      55A     -0.502595    56A     -0.501955    57A     -0.487885  
      58A     -0.478589    59A     -0.471553    60A     -0.466480  
      61A     -0.460703    62A     -0.458608    63A     -0.368647  
      64A     -0.348154  

    Virtual:                                                              

      65A      0.094444    66A      0.103584    67A      0.147259  
      68A      0.174663    69A      0.202737    70A      0.215652  
      71A      0.233482    72A      0.247273    73A      0.281241  
      74A      0.291653    75A      0.306122    76A      0.316719  
      77A      0.331069    78A      0.381717    79A      0.416955  
      80A      0.428529    81A      0.437389    82A      0.466484  
      83A      0.471121    84A      0.478127    85A      0.516072  
      86A      0.527635    87A      0.544860    88A      0.577958  
      89A      0.584285    90A      0.596375    91A      0.601168  
      92A      0.618745    93A      0.622544    94A      0.637800  
      95A      0.651588    96A      0.658560    97A      0.671347  
      98A      0.683724    99A      0.701511   100A      0.718593  
     101A      0.738552   102A      0.763481   103A      0.767300  
     104A      0.783633   105A      0.791923   106A      0.806679  
     107A      0.812023   108A      0.847656   109A      0.852847  
     110A      0.873121   111A      0.888732   112A      0.924085  
     113A      0.938215   114A      0.944294   115A      0.960658  
     116A      0.967823   117A      0.983948   118A      1.008744  
     119A      1.024424   120A      1.041165   121A      1.051099  
     122A      1.057864   123A      1.071452   124A      1.090939  
     125A      1.108237   126A      1.110962   127A      1.116096  
     128A      1.124939   129A      1.129229   130A      1.132710  
     131A      1.136164   132A      1.141370   133A      1.169198  
     134A      1.180885   135A      1.196039   136A      1.201051  
     137A      1.216456   138A      1.227611   139A      1.249918  
     140A      1.255141   141A      1.283545   142A      1.290574  
     143A      1.300287   144A      1.324805   145A      1.334125  
     146A      1.345493   147A      1.364402   148A      1.390057  
     149A      1.414935   150A      1.426085   151A      1.434164  
     152A      1.450638   153A      1.494676   154A      1.559304  
     155A      1.571146   156A      1.595826   157A      1.627323  
     158A      1.652351   159A      1.661132   160A      1.678745  
     161A      1.683139   162A      1.715823   163A      1.750484  
     164A      1.774332   165A      1.783611   166A      1.793690  
     167A      1.821915   168A      1.863189   169A      1.908286  
     170A      1.966988   171A      2.013082   172A      2.028084  
     173A      2.053047   174A      2.059817   175A      2.067558  
     176A      2.097077   177A      2.104491   178A      2.159507  
     179A      2.183162   180A      2.206630   181A      2.219710  
     182A      2.237327   183A      2.261344   184A      2.323216  
     185A      2.340781   186A      2.350961   187A      2.385082  
     188A      2.403639   189A      2.414147   190A      2.420640  
     191A      2.455871   192A      2.476074   193A      2.533766  
     194A      2.544946   195A      2.582055   196A      2.595822  
     197A      2.636205   198A      2.706249   199A      2.729790  
     200A      2.770467   201A      2.834706   202A      2.882356  
     203A      2.930779   204A      2.969271   205A      3.002259  
     206A      3.020038   207A      3.053207   208A      3.068273  
     209A      3.089890   210A      3.116835   211A      3.177500  
     212A      3.192678   213A      3.248630   214A      3.323042  
     215A      3.456113   216A      3.481751   217A      3.541842  
     218A      3.710051   219A      4.259449   220A      4.424087  
     221A      4.460773   222A      4.483917   223A      4.517477  
     224A      4.579503   225A      4.630749   226A      4.655224  
     227A      4.721337   228A      4.744894   229A      4.797655  
     230A      4.874993   231A      4.924666   232A      5.151415  

    Final Occupation by Irrep:
              A 
    DOCC [    64 ]

  Energy converged.

  @DF-RHF Final Energy: -1908.87838693349636

   => Energetics <=

    Nuclear Repulsion Energy =           1167.2747952606675881
    One-Electron Energy =               -4952.2615293725884840
    Two-Electron Energy =                1876.1083471784243102
    Total Energy =                      -1908.8783869334963583



Properties will be evaluated at   0.000000,   0.000000,   0.000000 [a0]

Properties computed using the SCF density matrix

  Nuclear Dipole Moment: [e a0]
     X:    -9.7365      Y:     6.7816      Z:     5.8184

  Electronic Dipole Moment: [e a0]
     X:     9.7191      Y:    -6.5069      Z:    -5.7072

  Dipole Moment: [e a0]
     X:    -0.0174      Y:     0.2747      Z:     0.1112     Total:     0.2968

  Dipole Moment: [D]
     X:    -0.0443      Y:     0.6982      Z:     0.2826     Total:     0.7545


*** tstop() called on wr59 at Thu Sep 27 12:49:50 2018
Module time:
	user time   =      97.30 seconds =       1.62 minutes
	system time =       2.36 seconds =       0.04 minutes
	total time  =          7 seconds =       0.12 minutes
Total time:
	user time   =     434.14 seconds =       7.24 minutes
	system time =      10.29 seconds =       0.17 minutes
	total time  =         32 seconds =       0.53 minutes

*** tstart() called on wr59
*** at Thu Sep 27 12:49:50 2018


         ------------------------------------------------------------
                                   SCF GRAD                          
                          Rob Parrish, Justin Turney,                
                       Andy Simmonett, and Alex Sokolov              
         ------------------------------------------------------------

  ==> Geometry <==

    Molecular point group: c1
    Full point group: C1

    Geometry (in Angstrom), charge = 0, multiplicity = 1:

       Center              X                  Y                   Z               Mass       
    ------------   -----------------  -----------------  -----------------  -----------------
         C           -0.330478407046    -1.210385326740     0.216403665378    12.000000000000
         O           -1.058067655850     0.758119609805     1.364762405829    15.994914619560
         C           -0.220587000949     0.144562710318     0.497247714819    12.000000000000
         C            0.798395362744     0.871873295136    -0.088910669740    12.000000000000
         H            0.894328798663     1.913907149286     0.147085779449     1.007825032070
         O           -4.158720899331     2.338493091306     1.691982936855    15.994914619560
         C            1.697106605538     0.269649393696    -0.951591845601    12.000000000000
         C            1.577955880947    -1.083169967840    -1.232405921130    12.000000000000
         C            0.563443767469    -1.817309712476    -0.642062422116    12.000000000000
         H            0.474980506051    -2.864493768786    -0.852980744340     1.007825032070
         C           -2.229744082853     1.300019401297     0.816779133575    12.000000000000
         H           -2.872446797862     0.530607911729     0.411893809903     1.007825032070
         H           -1.995555993394     2.003385722439     0.023445935150     1.007825032070
         C           -3.019959508230     2.050736777873     1.863797949051    12.000000000000
         O           -2.329141458038     2.389752133430     2.933724765154    15.994914619560
         H           -2.907848412416     2.870297717905     3.518687889339     1.007825032070
         CL           2.668228158700    -1.898827383023    -2.301894672550    34.968852682000
         CL          -1.580974334338    -2.160869132741     0.951613433390    34.968852682000
         CL           2.948325765659     1.241353804707    -1.647863982301    34.968852682000

  Nuclear repulsion = 1167.274795260667588

  ==> Basis Set <==

  Basis Set: 6-31G(D)
    Blend: 6-31G(D)
    Number of shells: 100
    Number of basis function: 232
    Number of Cartesian functions: 232
    Spherical Harmonics?: false
    Max angular momentum: 2

  ==> DFJKGrad: Density-Fitted SCF Gradients <==

    Gradient:                    1
    J tasked:                  Yes
    K tasked:                  Yes
    wK tasked:                  No
    OpenMP threads:             16
    Integrals threads:          16
    Memory (MB):             78678
    Schwarz Cutoff:          0E+00
    Fitting Condition:       1E-12

   => Auxiliary Basis Set <=

  Basis Set: (6-31G(D) AUX)
    Blend: CC-PVDZ-JKFIT
    Number of shells: 417
    Number of basis function: 1406
    Number of Cartesian functions: 1406
    Spherical Harmonics?: false
    Max angular momentum: 3


  -Total Gradient:
     Atom            X                  Y                   Z
    ------   -----------------  -----------------  -----------------
       1        0.000709250504     0.000049643727    -0.000374060101
       2       -0.000010542502     0.000054973441     0.000022447704
       3       -0.000179392851    -0.000110514621     0.000017388028
       4        0.000044101759    -0.000034940837    -0.000035734071
       5       -0.000001035982    -0.000004591852     0.000006813130
       6       -0.000007840641    -0.000000875266    -0.000001980664
       7       -0.000020532323     0.000051313290     0.000028457448
       8       -0.000065392671    -0.000050585036     0.000044799930
       9       -0.000312473770     0.000149422778     0.000197422845
      10        0.000010668165    -0.000004736216    -0.000003380158
      11        0.000011513491     0.000000796484     0.000008324674
      12       -0.000002474176     0.000000130021    -0.000002471233
      13       -0.000002010504    -0.000000230809    -0.000000090797
      14        0.000011764903     0.000003186996     0.000002921926
      15       -0.000003087487    -0.000001203278    -0.000001526159
      16       -0.000000166078    -0.000000067006    -0.000000687895
      17        0.000003568981    -0.000003198081     0.000002721175
      18       -0.000185978505    -0.000098544473     0.000089390761
      19        0.000000059550     0.000000020540    -0.000000756537


*** tstop() called on wr59 at Thu Sep 27 12:49:55 2018
Module time:
	user time   =      65.61 seconds =       1.09 minutes
	system time =       1.37 seconds =       0.02 minutes
	total time  =          5 seconds =       0.08 minutes
Total time:
	user time   =     499.78 seconds =       8.33 minutes
	system time =      11.66 seconds =       0.19 minutes
	total time  =         37 seconds =       0.62 minutes

  //>>>>>>>>>>>>>>>>>>>>>>>>>>>>>>>>>>>//
  //   Loading displacement 3 of 103   //
  //<<<<<<<<<<<<<<<<<<<<<<<<<<<<<<<<<<<//
gradient() will perform analytic gradient computation.

*** tstart() called on wr59
*** at Thu Sep 27 12:49:55 2018

   => Loading Basis Set <=

    Name: 6-31G(D)
    Role: ORBITAL
    Keyword: BASIS
    atoms 1, 3-4, 7-9, 11, 14 entry C          line   111 file /usr/local/hpc1/software_molmod/psi4/psi4conda/share/psi4/basis/6-31g_d_.gbs 
    atoms 2, 6, 15            entry O          line   145 file /usr/local/hpc1/software_molmod/psi4/psi4conda/share/psi4/basis/6-31g_d_.gbs 
    atoms 5, 10, 12-13, 16    entry H          line    44 file /usr/local/hpc1/software_molmod/psi4/psi4conda/share/psi4/basis/6-31g_d_.gbs 
    atoms 17-19               entry CL         line   340 file /usr/local/hpc1/software_molmod/psi4/psi4conda/share/psi4/basis/6-31g_d_.gbs 


         ---------------------------------------------------------
                                   SCF
            by Justin Turney, Rob Parrish, Andy Simmonett
                             and Daniel Smith
                              RHF Reference
                       16 Threads, 104904 MiB Core
         ---------------------------------------------------------

  ==> Geometry <==

    Molecular point group: c1
    Full point group: C1

    Geometry (in Angstrom), charge = 0, multiplicity = 1:

       Center              X                  Y                   Z               Mass       
    ------------   -----------------  -----------------  -----------------  -----------------
         C           -0.331218164292    -1.211132140881     0.216413469770    12.000000000000
         O           -1.058031545859     0.758158260051     1.364760648497    15.994914619560
         C           -0.220549196088     0.144601571043     0.497247444824    12.000000000000
         C            0.798425565835     0.871915768860    -0.088919671403    12.000000000000
         H            0.894351837102     1.913952045675     0.147068992536     1.007825032070
         O           -4.158695761494     2.338510330509     1.691980616935    15.994914619560
         C            1.697138433426     0.269692581498    -0.951599653087    12.000000000000
         C            1.577997098902    -1.083129701064    -1.232403640112    12.000000000000
         C            0.563492654003    -1.817272994523    -0.642051376071    12.000000000000
         H            0.475036683556    -2.864459236908    -0.852961902088     1.007825032070
         C           -2.229714021951     1.300045156982     0.816777559159    12.000000000000
         H           -2.872412245600     0.530625848469     0.411899964892     1.007825032070
         H           -1.995534068415     2.003407597752     0.023438518874     1.007825032070
         C           -3.019931571085     2.050763968994     1.863793742549    12.000000000000
         O           -2.329112411728     2.389792268716     2.933715740851    15.994914619560
         H           -2.907821020845     2.870337604050     3.518677432653     1.007825032070
         CL           2.668271920003    -1.898786413929    -2.301890334377    34.968852682000
         CL          -1.580917295584    -2.160837442650     0.951634364873    34.968852682000
         CL           2.948347738247     1.241401596862    -1.647883073895    34.968852682000

  Running in c1 symmetry.

  Rotational constants: A =      0.02708  B =      0.00820  C =      0.00656 [cm^-1]
  Rotational constants: A =    811.89963  B =    245.86569  C =    196.56644 [MHz]
  Nuclear repulsion = 1167.267943543759202

  Charge       = 0
  Multiplicity = 1
  Electrons    = 128
  Nalpha       = 64
  Nbeta        = 64

  ==> Algorithm <==

  SCF Algorithm Type is DF.
  DIIS enabled.
  MOM disabled.
  Fractional occupation disabled.
  Guess Type is SAD.
  Energy threshold   = 1.00e-08
  Density threshold  = 1.00e-08
  Integral threshold = 0.00e+00

  ==> Primary Basis <==

  Basis Set: 6-31G(D)
    Blend: 6-31G(D)
    Number of shells: 100
    Number of basis function: 232
    Number of Cartesian functions: 232
    Spherical Harmonics?: false
    Max angular momentum: 2

   => Loading Basis Set <=

    Name: (6-31G(D) AUX)
    Role: JKFIT
    Keyword: DF_BASIS_SCF
    atoms 1, 3-4, 7-9, 11, 14 entry C          line   121 file /usr/local/hpc1/software_molmod/psi4/psi4conda/share/psi4/basis/cc-pvdz-jkfit.gbs 
    atoms 2, 6, 15            entry O          line   221 file /usr/local/hpc1/software_molmod/psi4/psi4conda/share/psi4/basis/cc-pvdz-jkfit.gbs 
    atoms 5, 10, 12-13, 16    entry H          line    51 file /usr/local/hpc1/software_molmod/psi4/psi4conda/share/psi4/basis/cc-pvdz-jkfit.gbs 
    atoms 17-19               entry CL         line   667 file /usr/local/hpc1/software_molmod/psi4/psi4conda/share/psi4/basis/cc-pvdz-jkfit.gbs 

  ==> Pre-Iterations <==

   -------------------------------------------------------
    Irrep   Nso     Nmo     Nalpha   Nbeta   Ndocc  Nsocc
   -------------------------------------------------------
     A        232     232       0       0       0       0
   -------------------------------------------------------
    Total     232     232      64      64      64       0
   -------------------------------------------------------

  ==> Integral Setup <==

  ==> DiskDFJK: Density-Fitted J/K Matrices <==

    J tasked:                  Yes
    K tasked:                  Yes
    wK tasked:                  No
    OpenMP threads:             16
    Integrals threads:          16
    Memory (MB):             78678
    Algorithm:                Core
    Integral Cache:           NONE
    Schwarz Cutoff:          1E-12
    Fitting Condition:       1E-12

   => Auxiliary Basis Set <=

  Basis Set: (6-31G(D) AUX)
    Blend: CC-PVDZ-JKFIT
    Number of shells: 417
    Number of basis function: 1406
    Number of Cartesian functions: 1406
    Spherical Harmonics?: false
    Max angular momentum: 3

  Minimum eigenvalue in the overlap matrix is 3.6841316591E-04.
  Using Symmetric Orthogonalization.

  SCF Guess: Superposition of Atomic Densities via on-the-fly atomic UHF.

  ==> Iterations <==

                           Total Energy        Delta E     RMS |[F,P]|

   @DF-RHF iter   0: -1914.93136796072008   -1.91493e+03   1.11454e-01 
   @DF-RHF iter   1: -1908.40910444312703    6.52226e+00   1.44004e-02 
   @DF-RHF iter   2: -1908.73977346824859   -3.30669e-01   8.93644e-03 DIIS
   @DF-RHF iter   3: -1908.85925217262638   -1.19479e-01   2.16912e-03 DIIS
   @DF-RHF iter   4: -1908.87620578347469   -1.69536e-02   7.10224e-04 DIIS
   @DF-RHF iter   5: -1908.87798471420456   -1.77893e-03   3.01182e-04 DIIS
   @DF-RHF iter   6: -1908.87833600387194   -3.51290e-04   9.13266e-05 DIIS
   @DF-RHF iter   7: -1908.87837921400319   -4.32101e-05   3.15184e-05 DIIS
   @DF-RHF iter   8: -1908.87838494410357   -5.73010e-06   1.51941e-05 DIIS
   @DF-RHF iter   9: -1908.87838636226911   -1.41817e-06   6.25220e-06 DIIS
   @DF-RHF iter  10: -1908.87838669880102   -3.36532e-07   2.06872e-06 DIIS
   @DF-RHF iter  11: -1908.87838672516523   -2.63642e-08   8.40854e-07 DIIS
   @DF-RHF iter  12: -1908.87838672810290   -2.93767e-09   2.57846e-07 DIIS
   @DF-RHF iter  13: -1908.87838672841758   -3.14685e-10   9.91267e-08 DIIS
   @DF-RHF iter  14: -1908.87838672846487   -4.72937e-11   3.62237e-08 DIIS
   @DF-RHF iter  15: -1908.87838672847238   -7.50333e-12   1.54233e-08 DIIS
   @DF-RHF iter  16: -1908.87838672847352   -1.13687e-12   6.27087e-09 DIIS

  ==> Post-Iterations <==

    Orbital Energies [Eh]
    ---------------------

    Doubly Occupied:                                                      

       1A   -104.849909     2A   -104.849057     3A   -104.847843  
       4A    -20.631830     5A    -20.616479     6A    -20.568049  
       7A    -11.403171     8A    -11.339325     9A    -11.338469  
      10A    -11.335089    11A    -11.330168    12A    -11.323016  
      13A    -11.285203    14A    -11.277495    15A    -10.582952  
      16A    -10.582325    17A    -10.581064    18A     -8.052402  
      19A     -8.051769    20A     -8.050510    21A     -8.048934  
      22A     -8.048875    23A     -8.048235    24A     -8.048212  
      25A     -8.046969    26A     -8.046965    27A     -1.498133  
      28A     -1.449724    29A     -1.386545    30A     -1.245971  
      31A     -1.188406    32A     -1.155935    33A     -1.115872  
      34A     -1.056868    35A     -1.022916    36A     -0.981643  
      37A     -0.884695    38A     -0.858327    39A     -0.830925  
      40A     -0.746345    41A     -0.740938    42A     -0.725097  
      43A     -0.708363    44A     -0.684373    45A     -0.675823  
      46A     -0.650608    47A     -0.625524    48A     -0.622412  
      49A     -0.610554    50A     -0.592127    51A     -0.577579  
      52A     -0.567748    53A     -0.559127    54A     -0.530354  
      55A     -0.502575    56A     -0.501940    57A     -0.487870  
      58A     -0.478645    59A     -0.471523    60A     -0.466471  
      61A     -0.460693    62A     -0.458583    63A     -0.368623  
      64A     -0.348027  

    Virtual:                                                              

      65A      0.094454    66A      0.103571    67A      0.147356  
      68A      0.174666    69A      0.202922    70A      0.215651  
      71A      0.233513    72A      0.247271    73A      0.281257  
      74A      0.291654    75A      0.306127    76A      0.316691  
      77A      0.331054    78A      0.381749    79A      0.416938  
      80A      0.428475    81A      0.437265    82A      0.466460  
      83A      0.471076    84A      0.478127    85A      0.516062  
      86A      0.527541    87A      0.544845    88A      0.577822  
      89A      0.584271    90A      0.596393    91A      0.601178  
      92A      0.618717    93A      0.622545    94A      0.637729  
      95A      0.651595    96A      0.658608    97A      0.671302  
      98A      0.683742    99A      0.701596   100A      0.718637  
     101A      0.738569   102A      0.763480   103A      0.767317  
     104A      0.783658   105A      0.791931   106A      0.806703  
     107A      0.812064   108A      0.847628   109A      0.852893  
     110A      0.873149   111A      0.888646   112A      0.924103  
     113A      0.938221   114A      0.944310   115A      0.960607  
     116A      0.967846   117A      0.984010   118A      1.008682  
     119A      1.024423   120A      1.041174   121A      1.051108  
     122A      1.057878   123A      1.071449   124A      1.090957  
     125A      1.108251   126A      1.110973   127A      1.116050  
     128A      1.124875   129A      1.129194   130A      1.132688  
     131A      1.136149   132A      1.141365   133A      1.169078  
     134A      1.180877   135A      1.196015   136A      1.201056  
     137A      1.216510   138A      1.227613   139A      1.249926  
     140A      1.255178   141A      1.283610   142A      1.290506  
     143A      1.300287   144A      1.324894   145A      1.334137  
     146A      1.345514   147A      1.364402   148A      1.390144  
     149A      1.414887   150A      1.426071   151A      1.434274  
     152A      1.450671   153A      1.494583   154A      1.559298  
     155A      1.571163   156A      1.595847   157A      1.627325  
     158A      1.652385   159A      1.661196   160A      1.678835  
     161A      1.683075   162A      1.715859   163A      1.750500  
     164A      1.774307   165A      1.783573   166A      1.793709  
     167A      1.821977   168A      1.863103   169A      1.908264  
     170A      1.966983   171A      2.013046   172A      2.028030  
     173A      2.052829   174A      2.059656   175A      2.067383  
     176A      2.097172   177A      2.104478   178A      2.159497  
     179A      2.183476   180A      2.206626   181A      2.219774  
     182A      2.237349   183A      2.261305   184A      2.323168  
     185A      2.340719   186A      2.350906   187A      2.385042  
     188A      2.403608   189A      2.414137   190A      2.420455  
     191A      2.455801   192A      2.476003   193A      2.533748  
     194A      2.544815   195A      2.581732   196A      2.596000  
     197A      2.636140   198A      2.706161   199A      2.729828  
     200A      2.770470   201A      2.834651   202A      2.882292  
     203A      2.930749   204A      2.968944   205A      3.002152  
     206A      3.019963   207A      3.052984   208A      3.068074  
     209A      3.089592   210A      3.116799   211A      3.177398  
     212A      3.192814   213A      3.248613   214A      3.323048  
     215A      3.456108   216A      3.481428   217A      3.541829  
     218A      3.709647   219A      4.259436   220A      4.424115  
     221A      4.460581   222A      4.483903   223A      4.517447  
     224A      4.579451   225A      4.630642   226A      4.655197  
     227A      4.721337   228A      4.744879   229A      4.797717  
     230A      4.874873   231A      4.924649   232A      5.151073  

    Final Occupation by Irrep:
              A 
    DOCC [    64 ]

  Energy converged.

  @DF-RHF Final Energy: -1908.87838672847352

   => Energetics <=

    Nuclear Repulsion Energy =           1167.2679435437592019
    One-Electron Energy =               -4952.2482703786035927
    Two-Electron Energy =                1876.1019401063706482
    Total Energy =                      -1908.8783867284735152



Properties will be evaluated at   0.000000,   0.000000,   0.000000 [a0]

Properties computed using the SCF density matrix

  Nuclear Dipole Moment: [e a0]
     X:    -9.7365      Y:     6.7816      Z:     5.8184

  Electronic Dipole Moment: [e a0]
     X:     9.7175      Y:    -6.5080      Z:    -5.7062

  Dipole Moment: [e a0]
     X:    -0.0189      Y:     0.2736      Z:     0.1122     Total:     0.2963

  Dipole Moment: [D]
     X:    -0.0481      Y:     0.6955      Z:     0.2852     Total:     0.7532


*** tstop() called on wr59 at Thu Sep 27 12:50:02 2018
Module time:
	user time   =     100.29 seconds =       1.67 minutes
	system time =       2.19 seconds =       0.04 minutes
	total time  =          7 seconds =       0.12 minutes
Total time:
	user time   =     600.26 seconds =      10.00 minutes
	system time =      13.86 seconds =       0.23 minutes
	total time  =         44 seconds =       0.73 minutes

*** tstart() called on wr59
*** at Thu Sep 27 12:50:02 2018


         ------------------------------------------------------------
                                   SCF GRAD                          
                          Rob Parrish, Justin Turney,                
                       Andy Simmonett, and Alex Sokolov              
         ------------------------------------------------------------

  ==> Geometry <==

    Molecular point group: c1
    Full point group: C1

    Geometry (in Angstrom), charge = 0, multiplicity = 1:

       Center              X                  Y                   Z               Mass       
    ------------   -----------------  -----------------  -----------------  -----------------
         C           -0.331218164292    -1.211132140881     0.216413469770    12.000000000000
         O           -1.058031545859     0.758158260051     1.364760648497    15.994914619560
         C           -0.220549196088     0.144601571043     0.497247444824    12.000000000000
         C            0.798425565835     0.871915768860    -0.088919671403    12.000000000000
         H            0.894351837102     1.913952045675     0.147068992536     1.007825032070
         O           -4.158695761494     2.338510330509     1.691980616935    15.994914619560
         C            1.697138433426     0.269692581498    -0.951599653087    12.000000000000
         C            1.577997098902    -1.083129701064    -1.232403640112    12.000000000000
         C            0.563492654003    -1.817272994523    -0.642051376071    12.000000000000
         H            0.475036683556    -2.864459236908    -0.852961902088     1.007825032070
         C           -2.229714021951     1.300045156982     0.816777559159    12.000000000000
         H           -2.872412245600     0.530625848469     0.411899964892     1.007825032070
         H           -1.995534068415     2.003407597752     0.023438518874     1.007825032070
         C           -3.019931571085     2.050763968994     1.863793742549    12.000000000000
         O           -2.329112411728     2.389792268716     2.933715740851    15.994914619560
         H           -2.907821020845     2.870337604050     3.518677432653     1.007825032070
         CL           2.668271920003    -1.898786413929    -2.301890334377    34.968852682000
         CL          -1.580917295584    -2.160837442650     0.951634364873    34.968852682000
         CL           2.948347738247     1.241401596862    -1.647883073895    34.968852682000

  Nuclear repulsion = 1167.267943543759202

  ==> Basis Set <==

  Basis Set: 6-31G(D)
    Blend: 6-31G(D)
    Number of shells: 100
    Number of basis function: 232
    Number of Cartesian functions: 232
    Spherical Harmonics?: false
    Max angular momentum: 2

  ==> DFJKGrad: Density-Fitted SCF Gradients <==

    Gradient:                    1
    J tasked:                  Yes
    K tasked:                  Yes
    wK tasked:                  No
    OpenMP threads:             16
    Integrals threads:          16
    Memory (MB):             78678
[...]
     12   H                0.18 -0.08  0.11    0.13 -0.06  0.00    0.31 -0.13  0.15   
     13   H                0.15 -0.11  0.03    0.08 -0.01  0.08    0.24 -0.19  0.04   
     14   C               -0.01 -0.00 -0.01   -0.00  0.02 -0.01   -0.02 -0.01 -0.03   
     15   O               -0.01 -0.00 -0.01   -0.01 -0.00 -0.00    0.01  0.00  0.01   
     16   H                0.07  0.01  0.06    0.04  0.01  0.03    0.08  0.01  0.08   
     17   CL               0.01 -0.01 -0.01    0.01 -0.01 -0.01   -0.01  0.00  0.00   
     18   CL              -0.02 -0.02  0.01   -0.02 -0.02  0.01    0.02  0.02 -0.01   
     19   CL              -0.01 -0.01  0.01   -0.00 -0.00  0.00   -0.00  0.00  0.00   

  Vibration                       40                  41                  42          
  Freq [cm^-1]                1259.9939           1344.2793           1375.8921       
  Irrep                           A                   A                   A           
  Reduced mass [u]              2.4097              1.8687              1.2838        
  Force const [mDyne/A]         2.2539              1.9896              1.4319        
  Turning point v=0 [a0]        0.1991              0.2189              0.2611        
  RMS dev v=0 [a0 u^1/2]        0.2186              0.2116              0.2092        
  Char temp [K]               1812.8479           1934.1156           1979.5994       
  ----------------------------------------------------------------------------------
      1   C                0.05 -0.03 -0.04   -0.02 -0.00  0.02    0.00 -0.04 -0.01   
      2   O                0.04 -0.02 -0.01    0.02  0.01 -0.01    0.03 -0.01 -0.01   
      3   C                0.02  0.09  0.01   -0.03  0.02  0.02   -0.05 -0.04  0.03   
      4   C               -0.03 -0.09 -0.01   -0.00  0.01  0.00   -0.00 -0.01 -0.00   
      5   H                0.57 -0.07 -0.44    0.04  0.01 -0.03    0.57  0.03 -0.42   
      6   O                0.01 -0.00  0.00    0.09 -0.02  0.02   -0.01  0.00 -0.00   
      7   C               -0.13 -0.13  0.06    0.01  0.01 -0.01   -0.02  0.07  0.03   
      8   C               -0.11  0.16  0.13    0.02 -0.00 -0.02    0.06  0.06 -0.03   
      9   C               -0.00  0.04  0.01   -0.00 -0.02 -0.00   -0.02 -0.03  0.01   
     10   H                0.47  0.08 -0.35    0.00 -0.02 -0.01   -0.55 -0.07  0.41   
     11   C               -0.02  0.01 -0.01   -0.01 -0.04 -0.05   -0.01  0.00 -0.00   
     12   H               -0.02  0.00 -0.01   -0.13  0.08 -0.10   -0.01  0.00  0.00   
     13   H                0.00  0.01 -0.00    0.26 -0.12 -0.03    0.00  0.00  0.00   
     14   C                0.00  0.00  0.01    0.01  0.04  0.11   -0.00 -0.00 -0.00   
     15   O               -0.01 -0.00 -0.01   -0.15 -0.01 -0.10    0.01 -0.00  0.00   
     16   H                0.01  0.00  0.01    0.68  0.10  0.59   -0.05 -0.01 -0.04   
     17   CL               0.02 -0.01 -0.02   -0.00  0.00  0.00   -0.00 -0.00  0.00   
     18   CL              -0.00 -0.00  0.00    0.00  0.00 -0.00    0.00  0.00 -0.00   
     19   CL               0.02  0.01 -0.01   -0.00 -0.00  0.00   -0.00 -0.00 -0.00   

  Vibration                       43                  44                  45          
  Freq [cm^-1]                1395.1479           1404.1096           1497.8098       
  Irrep                           A                   A                   A           
  Reduced mass [u]              1.0994              4.5636              4.5492        
  Force const [mDyne/A]         1.2608              5.3010              6.0131        
  Turning point v=0 [a0]        0.2802              0.1371              0.1329        
  RMS dev v=0 [a0 u^1/2]        0.2077              0.2071              0.2005        
  Char temp [K]               2007.3042           2020.1980           2155.0115       
  ----------------------------------------------------------------------------------
      1   C                0.01  0.00 -0.00   -0.18  0.09  0.17   -0.13  0.06  0.11   
      2   O                0.01  0.04 -0.01    0.16 -0.12 -0.09   -0.08  0.03  0.08   
      3   C                0.01 -0.01 -0.01   -0.12  0.21  0.14    0.23  0.06 -0.16   
      4   C                0.00  0.00 -0.00   -0.07 -0.04  0.05    0.04 -0.16 -0.08   
      5   H               -0.02 -0.00  0.01    0.10 -0.02 -0.10   -0.18 -0.21  0.09   
      6   O               -0.02  0.01 -0.01   -0.02  0.00 -0.01   -0.00  0.01  0.02   
      7   C               -0.00 -0.00  0.00    0.06  0.08 -0.02   -0.20  0.05  0.17   
      8   C               -0.01 -0.00  0.00    0.15  0.01 -0.11    0.14  0.11 -0.08   
      9   C                0.00  0.01 -0.00   -0.02 -0.21 -0.04   -0.00 -0.12 -0.03   
     10   H               -0.00  0.01  0.00    0.54 -0.20 -0.48   -0.10 -0.15  0.04   
     11   C               -0.01 -0.02  0.01   -0.07  0.03 -0.02    0.08 -0.04 -0.01   
     12   H               -0.55  0.39  0.06   -0.04  0.00  0.01   -0.42  0.29  0.12   
     13   H                0.62 -0.32 -0.06    0.03  0.01 -0.00   -0.34  0.19  0.07   
     14   C               -0.02 -0.05  0.02   -0.00  0.01  0.02   -0.00 -0.06 -0.12   
     15   O                0.03  0.00  0.01    0.03 -0.01  0.01   -0.01  0.02  0.04   
     16   H               -0.15 -0.02 -0.14   -0.24 -0.04 -0.22    0.26  0.06  0.26   
     17   CL               0.00 -0.00 -0.00   -0.01  0.01  0.01   -0.01 -0.00  0.00   
     18   CL              -0.00 -0.00  0.00    0.01  0.01 -0.01    0.01 -0.00 -0.00   
     19   CL               0.00  0.00 -0.00   -0.01 -0.01  0.00    0.01  0.00 -0.01   

  Vibration                       46                  47                  48          
  Freq [cm^-1]                1527.0292           1583.1836           1642.0793       
  Irrep                           A                   A                   A           
  Reduced mass [u]              1.9311              2.5605              1.1760        
  Force const [mDyne/A]         2.6531              3.7813              1.8683        
  Turning point v=0 [a0]        0.2021              0.1723              0.2497        
  RMS dev v=0 [a0 u^1/2]        0.1986              0.1950              0.1915        
  Char temp [K]               2197.0517           2277.8453           2362.5830       
  ----------------------------------------------------------------------------------
      1   C               -0.04 -0.00  0.03    0.01  0.01 -0.00   -0.02 -0.03  0.01   
      2   O               -0.05  0.01 -0.00   -0.02  0.02  0.03    0.00 -0.01 -0.01   
      3   C                0.08  0.02 -0.05   -0.01 -0.01 -0.01   -0.02  0.03  0.02   
      4   C                0.04 -0.04 -0.04   -0.01  0.00  0.01    0.04  0.00 -0.03   
      5   H               -0.13 -0.07  0.09    0.05  0.01 -0.03   -0.12 -0.00  0.09   
      6   O                0.01 -0.02 -0.02   -0.05 -0.00 -0.03   -0.00  0.00  0.00   
      7   C               -0.07  0.01  0.06    0.01  0.00 -0.01   -0.02 -0.03  0.00   
      8   C                0.04  0.04 -0.02   -0.00 -0.01  0.00   -0.01  0.03  0.02   
      9   C                0.00 -0.02 -0.01   -0.00  0.00  0.00    0.03 -0.00 -0.03   
     10   H               -0.09 -0.03  0.06    0.02  0.00 -0.02   -0.12 -0.01  0.09   
     11   C               -0.06  0.04  0.02    0.15 -0.13 -0.12   -0.03 -0.00 -0.07   
     12   H                0.53 -0.32 -0.22   -0.44  0.21  0.15    0.00 -0.35  0.60   
     13   H                0.39 -0.31 -0.15   -0.44  0.41  0.16    0.41  0.36  0.41   
     14   C                0.00  0.08  0.18    0.04  0.12  0.23    0.00 -0.01 -0.01   
     15   O                0.01 -0.03 -0.06    0.00 -0.04 -0.08   -0.00  0.00  0.00   
     16   H               -0.29 -0.07 -0.30   -0.30 -0.08 -0.32    0.01  0.00  0.02   
     17   CL              -0.00 -0.00  0.00    0.00  0.00  0.00    0.00 -0.00 -0.00   
     18   CL               0.00  0.00 -0.00   -0.00 -0.00  0.00    0.00  0.00 -0.00   
     19   CL               0.00  0.00 -0.00   -0.00 -0.00  0.00    0.00  0.00 -0.00   

  Vibration                       49                  50                  51          
  Freq [cm^-1]                1652.8821           1743.7042           1792.1236       
  Irrep                           A                   A                   A           
  Reduced mass [u]              2.5695             10.3576              6.5080        
  Force const [mDyne/A]         4.1360             18.5548             12.3150        
  Turning point v=0 [a0]        0.1684              0.0816              0.1016        
  RMS dev v=0 [a0 u^1/2]        0.1908              0.1858              0.1833        
  Char temp [K]               2378.1258           2508.7983           2578.4629       
  ----------------------------------------------------------------------------------
      1   C               -0.08 -0.08  0.04   -0.00 -0.41 -0.11    0.17 -0.10 -0.16   
      2   O                0.04 -0.03 -0.02    0.02 -0.04 -0.02    0.03 -0.01 -0.02   
      3   C               -0.10  0.10  0.10    0.11  0.48  0.04   -0.22 -0.00  0.17   
      4   C                0.10  0.03 -0.07   -0.05 -0.20 -0.02    0.31  0.01 -0.23   
      5   H               -0.37  0.00  0.28   -0.01 -0.23 -0.06   -0.42 -0.04  0.30   
      6   O               -0.01  0.00  0.00   -0.00  0.00  0.00   -0.00  0.00  0.00   
      7   C               -0.03 -0.13 -0.02   -0.01  0.37  0.11   -0.16  0.07  0.14   
      8   C               -0.05  0.12  0.07   -0.15 -0.40  0.01    0.15  0.03 -0.11   
      9   C                0.15 -0.01 -0.12    0.09  0.19 -0.02   -0.28  0.00  0.22   
     10   H               -0.45 -0.05  0.34   -0.13  0.21  0.15    0.36  0.05 -0.27   
     11   C                0.03 -0.01  0.03    0.01 -0.01 -0.00    0.03 -0.01  0.00   
     12   H               -0.09  0.25 -0.30   -0.06  0.06 -0.02   -0.07  0.09 -0.04   
     13   H               -0.31 -0.14 -0.20   -0.06 -0.01 -0.02   -0.12  0.01 -0.02   
     14   C                0.00  0.00  0.00    0.00 -0.00 -0.00    0.00  0.00 -0.00   
     15   O                0.00 -0.00 -0.00    0.00  0.00  0.00    0.00  0.00  0.00   
     16   H               -0.01 -0.00 -0.01   -0.00  0.00  0.00   -0.01  0.00 -0.00   
     17   CL               0.00 -0.00 -0.00    0.00  0.01  0.00   -0.00 -0.00  0.00   
     18   CL               0.00  0.01 -0.00    0.00  0.01 -0.00   -0.00  0.00  0.00   
     19   CL               0.00  0.00 -0.00   -0.00 -0.01 -0.00    0.00 -0.00 -0.00   

  Vibration                       52                  53                  54          
  Freq [cm^-1]                2036.3071           3229.2633           3306.1967       
  Irrep                           A                   A                   A           
  Reduced mass [u]             10.0595              1.0657              1.0995        
  Force const [mDyne/A]        24.5760              6.5475              7.0812        
  Turning point v=0 [a0]        0.0767              0.1870              0.1820        
  RMS dev v=0 [a0 u^1/2]        0.1719              0.1365              0.1349        
  Char temp [K]               2929.7881           4646.1839           4756.8737       
  ----------------------------------------------------------------------------------
      1   C                0.00  0.00 -0.00   -0.00  0.00  0.00   -0.00 -0.00  0.00   
      2   O               -0.01  0.00  0.00   -0.00  0.00  0.00   -0.00  0.00  0.00   
      3   C               -0.00 -0.00 -0.00    0.00 -0.00 -0.00    0.00  0.00 -0.00   
      4   C                0.00 -0.00 -0.00   -0.00 -0.00  0.00   -0.00  0.00  0.00   
      5   H               -0.01 -0.00  0.00    0.00  0.00  0.00    0.00 -0.00 -0.00   
      6   O               -0.43  0.11 -0.05    0.00 -0.00  0.00    0.00  0.00  0.00   
      7   C               -0.00 -0.00  0.00    0.00 -0.00 -0.00    0.00 -0.00 -0.00   
      8   C                0.00  0.00  0.00   -0.00 -0.00  0.00    0.00  0.00 -0.00   
      9   C               -0.00 -0.00  0.00    0.00  0.00 -0.00    0.00  0.00  0.00   
     10   H                0.00  0.00 -0.00   -0.00 -0.00  0.00   -0.00 -0.00  0.00   
     11   C               -0.07  0.04  0.03    0.00  0.03 -0.07   -0.05 -0.07 -0.01   
     12   H                0.19 -0.08 -0.10    0.21  0.26  0.11    0.55  0.68  0.35   
     13   H                0.08 -0.09 -0.03   -0.22 -0.60  0.68    0.07  0.20 -0.25   
     14   C                0.70 -0.19  0.06   -0.00  0.00  0.00   -0.00 -0.00  0.00   
     15   O               -0.07  0.01 -0.02    0.00 -0.00  0.00    0.00  0.00  0.00   
     16   H                0.31  0.05  0.29   -0.00  0.00 -0.00   -0.00 -0.00  0.00   
     17   CL               0.00 -0.00 -0.00   -0.00  0.00  0.00   -0.00  0.00  0.00   
     18   CL              -0.00 -0.00  0.00    0.00 -0.00  0.00    0.00 -0.00  0.00   
     19   CL               0.00  0.00 -0.00   -0.00 -0.00  0.00   -0.00 -0.00 -0.00   

  Vibration                       55                  56                  57          
  Freq [cm^-1]                3411.7950           3421.5275           4047.8949       
  Irrep                           A                   A                   A           
  Reduced mass [u]              1.0937              1.0941              1.0651        
  Force const [mDyne/A]         7.5010              7.5467             10.2829        
  Turning point v=0 [a0]        0.1796              0.1793              0.1671        
  RMS dev v=0 [a0 u^1/2]        0.1328              0.1326              0.1220        
  Char temp [K]               4908.8059           4922.8088           5824.0106       
  ----------------------------------------------------------------------------------
      1   C               -0.00  0.00  0.00   -0.00  0.00  0.00   -0.00  0.00  0.00   
      2   O               -0.00  0.00  0.00    0.00 -0.00 -0.00   -0.00  0.00  0.00   
      3   C                0.00  0.00 -0.00   -0.00  0.00  0.00    0.00 -0.00 -0.00   
      4   C               -0.01 -0.09 -0.02    0.00  0.01  0.00   -0.00 -0.00  0.00   
      5   H                0.09  0.96  0.22   -0.01 -0.08 -0.02    0.00  0.00 -0.00   
      6   O                0.00 -0.00  0.00    0.00 -0.00 -0.00    0.00  0.00  0.00   
      7   C               -0.00  0.00  0.00    0.00  0.00 -0.00    0.00  0.00 -0.00   
      8   C                0.00  0.00 -0.00    0.00  0.00 -0.00    0.00 -0.00 -0.00   
      9   C               -0.00 -0.01 -0.00   -0.01 -0.09 -0.02    0.00 -0.00 -0.00   
     10   H                0.01  0.08  0.02    0.08  0.97  0.20   -0.00  0.00  0.00   
     11   C               -0.00 -0.00  0.00   -0.00  0.00 -0.00   -0.00  0.00  0.00   
     12   H                0.00  0.00  0.00    0.00 -0.00  0.00   -0.00  0.00 -0.00   
     13   H                0.00  0.00 -0.00    0.00 -0.00  0.00    0.00  0.00 -0.00   
     14   C               -0.00  0.00  0.00   -0.00  0.00 -0.00    0.00 -0.00 -0.00   
     15   O               -0.00 -0.00 -0.00    0.00 -0.00 -0.00    0.04 -0.03 -0.04   
     16   H                0.00 -0.00  0.00    0.00 -0.00 -0.00   -0.59  0.51  0.63   
     17   CL               0.00 -0.00 -0.00   -0.00  0.00  0.00   -0.00  0.00  0.00   
     18   CL              -0.00 -0.00  0.00    0.00  0.00 -0.00   -0.00  0.00  0.00   
     19   CL               0.00  0.00 -0.00   -0.00 -0.00  0.00   -0.00 -0.00  0.00   

  ==> Thermochemistry Components <==

  Entropy, S
    Electronic S            0.000 [cal/(mol K)]        0.000 [J/(mol K)]       0.00000000 [mEh/K] (multiplicity = 1)
    Translational S        42.496 [cal/(mol K)]      177.803 [J/(mol K)]       0.06772143 [mEh/K] (mol. weight = 253.9304 [u], P = 101325.00 [Pa])
    Rotational S           33.371 [cal/(mol K)]      139.624 [J/(mol K)]       0.05317987 [mEh/K] (symmetry no. = 1)
    Vibrational S          44.740 [cal/(mol K)]      187.194 [J/(mol K)]       0.07129825 [mEh/K]
  Total S                 120.607 [cal/(mol K)]      504.620 [J/(mol K)]       0.19219955 [mEh/K]
  Correction S              0.000 [cal/(mol K)]        0.000 [J/(mol K)]       0.00000000 [mEh/K]

  Constant volume heat capacity, Cv
    Electronic Cv           0.000 [cal/(mol K)]        0.000 [J/(mol K)]       0.00000000 [mEh/K]
    Translational Cv        2.981 [cal/(mol K)]       12.472 [J/(mol K)]       0.00475022 [mEh/K]
    Rotational Cv           2.981 [cal/(mol K)]       12.472 [J/(mol K)]       0.00475022 [mEh/K]
    Vibrational Cv         38.212 [cal/(mol K)]      159.877 [J/(mol K)]       0.06089407 [mEh/K]
  Total Cv                 44.173 [cal/(mol K)]      184.821 [J/(mol K)]       0.07039452 [mEh/K]
  Correction Cv             0.000 [cal/(mol K)]        0.000 [J/(mol K)]       0.00000000 [mEh/K]

  Constant pressure heat capacity, Cp
    Electronic Cp           0.000 [cal/(mol K)]        0.000 [J/(mol K)]       0.00000000 [mEh/K]
    Translational Cp        4.968 [cal/(mol K)]       20.786 [J/(mol K)]       0.00791704 [mEh/K]
    Rotational Cp           2.981 [cal/(mol K)]       12.472 [J/(mol K)]       0.00475022 [mEh/K]
    Vibrational Cp         38.212 [cal/(mol K)]      159.877 [J/(mol K)]       0.06089407 [mEh/K]
  Total Cp                 46.160 [cal/(mol K)]      193.135 [J/(mol K)]       0.07356133 [mEh/K]
  Correction Cp             0.000 [cal/(mol K)]        0.000 [J/(mol K)]       0.00000000 [mEh/K]

  ==> Thermochemistry Energy Analysis <==

  Raw electronic energy, E0
  Total E0, Electronic energy at well bottom at 0 [K]                -1908.87838746 [Eh]

  Zero-point energy, ZPE_vib = Sum_i nu_i / 2
    Electronic ZPE          0.000 [kcal/mol]        0.000 [kJ/mol]       0.00000000 [Eh]
    Translational ZPE       0.000 [kcal/mol]        0.000 [kJ/mol]       0.00000000 [Eh]
    Rotational ZPE          0.000 [kcal/mol]        0.000 [kJ/mol]       0.00000000 [Eh]
    Vibrational ZPE        81.037 [kcal/mol]      339.059 [kJ/mol]       0.12914089 [Eh]       28343.145 [cm^-1]
  Correction ZPE           81.037 [kcal/mol]      339.059 [kJ/mol]       0.12914089 [Eh]       28343.145 [cm^-1]
  Total ZPE, Electronic energy at 0 [K]                              -1908.74924657 [Eh]

  Thermal Energy, E (includes ZPE)
    Electronic E            0.000 [kcal/mol]        0.000 [kJ/mol]       0.00000000 [Eh]
    Translational E         0.889 [kcal/mol]        3.718 [kJ/mol]       0.00141628 [Eh]
    Rotational E            0.889 [kcal/mol]        3.718 [kJ/mol]       0.00141628 [Eh]
    Vibrational E          87.236 [kcal/mol]      364.997 [kJ/mol]       0.13902003 [Eh]
  Correction E             89.014 [kcal/mol]      372.434 [kJ/mol]       0.14185259 [Eh]
  Total E, Electronic energy at  298.15 [K]                          -1908.73653487 [Eh]

  Enthalpy, H_trans = E_trans + k_B * T
    Electronic H            0.000 [kcal/mol]        0.000 [kJ/mol]       0.00000000 [Eh]
    Translational H         1.481 [kcal/mol]        6.197 [kJ/mol]       0.00236046 [Eh]
    Rotational H            0.889 [kcal/mol]        3.718 [kJ/mol]       0.00141628 [Eh]
    Vibrational H          87.236 [kcal/mol]      364.997 [kJ/mol]       0.13902003 [Eh]
  Correction H             89.606 [kcal/mol]      374.913 [kJ/mol]       0.14279677 [Eh]
  Total H, Enthalpy at  298.15 [K]                                   -1908.73559069 [Eh]

  Gibbs free energy, G = H - T * S
    Electronic G            0.000 [kcal/mol]        0.000 [kJ/mol]       0.00000000 [Eh]
    Translational G       -11.189 [kcal/mol]      -46.814 [kJ/mol]      -0.01783068 [Eh]
    Rotational G           -9.061 [kcal/mol]      -37.910 [kJ/mol]      -0.01443930 [Eh]
    Vibrational G          73.897 [kcal/mol]      309.185 [kJ/mol]       0.11776245 [Eh]
  Correction G             53.647 [kcal/mol]      224.460 [kJ/mol]       0.08549247 [Eh]
  Total G, Free enthalpy at  298.15 [K]                              -1908.79289498 [Eh]

    Psi4 stopped on: Thursday, 27 September 2018 01:10PM
    Psi4 wall time for execution: 0:21:32.86

*** Psi4 exiting successfully. Buy a developer a beer!
