
    -----------------------------------------------------------------------
          Psi4: An Open-Source Ab Initio Electronic Structure Package
                               Psi4 1.2.1 release

                         Git: Rev {HEAD} 406f4de 


    R. M. Parrish, L. A. Burns, D. G. A. Smith, A. C. Simmonett,
    A. E. DePrince III, E. G. Hohenstein, U. Bozkaya, A. Yu. Sokolov,
    R. Di Remigio, R. M. Richard, J. F. Gonthier, A. M. James,
    H. R. McAlexander, A. Kumar, M. Saitow, X. Wang, B. P. Pritchard,
    P. Verma, H. F. Schaefer III, K. Patkowski, R. A. King, E. F. Valeev,
    F. A. Evangelista, J. M. Turney, T. D. Crawford, and C. D. Sherrill,
    J. Chem. Theory Comput. 13(7) pp 3185--3197 (2017).
    (doi: 10.1021/acs.jctc.7b00174)


                         Additional Contributions by
    P. Kraus, H. Kruse, M. H. Lechner, M. C. Schieber, and R. A. Shaw

    -----------------------------------------------------------------------


    Psi4 started on: Thursday, 27 September 2018 12:52PM

    Process ID: 7843
    Host:       wr59
    PSIDATADIR: /usr/local/hpc1/software_molmod/psi4/psi4conda/share/psi4
    Memory:     500.0 MiB
    Threads:    16
    
  ==> Input File <==

--------------------------------------------------------------------------
memory 110 Gb

molecule conf10 {
    C            0.628820198519    -0.843203156885    -0.913992629829
    O            1.643694725914     0.617171083613     0.597884696229
    C            0.508114458456     0.110915291267     0.100254600365
    C           -0.757270438360     0.470910412826     0.524184630055
    H           -0.894365916239     1.197573330088     1.298198794245
    O            4.006163427778     1.538070069143     1.492990755080
    C           -1.888476812419    -0.102444588959    -0.044634234591
    C           -1.763177333836    -1.043138711388    -1.044844933989
    C           -0.492280971042    -1.406819398322    -1.472831975493
    H           -0.386152381127    -2.137477035360    -2.249997037638
    C            1.597629911095     1.569803884410     1.608036023636
    H            1.112138470434     1.186951390164     2.499542654698
    H            1.071322132583     2.464607342012     1.292773128605
    C            3.012986272935     1.957650709318     1.970788377492
    O            2.979515481710     2.870300721308     2.938130587638
    H            3.874040682745     3.109932768810     3.161583960173
    CL          -3.133652111779    -1.793479236160    -1.792921926502
    CL           2.193439950440    -1.323614820946    -1.475495522786
    CL          -3.435012910170     0.405699740884     0.545677029160
}
set globals {
  reference rhf
  g_convergence gau_tight
  basis 6-31G(d)
}
frequency('hf', dertype=1)
--------------------------------------------------------------------------

  Memory set to 102.445 GiB by Python driver.
gradient() will perform analytic gradient computation.

*** tstart() called on wr59
*** at Thu Sep 27 12:52:48 2018

   => Loading Basis Set <=

    Name: 6-31G(D)
    Role: ORBITAL
    Keyword: BASIS
    atoms 1, 3-4, 7-9, 11, 14 entry C          line   111 file /usr/local/hpc1/software_molmod/psi4/psi4conda/share/psi4/basis/6-31g_d_.gbs 
    atoms 2, 6, 15            entry O          line   145 file /usr/local/hpc1/software_molmod/psi4/psi4conda/share/psi4/basis/6-31g_d_.gbs 
    atoms 5, 10, 12-13, 16    entry H          line    44 file /usr/local/hpc1/software_molmod/psi4/psi4conda/share/psi4/basis/6-31g_d_.gbs 
    atoms 17-19               entry CL         line   340 file /usr/local/hpc1/software_molmod/psi4/psi4conda/share/psi4/basis/6-31g_d_.gbs 

    There are an even number of electrons - assuming singlet.
    Specify the multiplicity in the molecule input block.


         ---------------------------------------------------------
                                   SCF
            by Justin Turney, Rob Parrish, Andy Simmonett
                             and Daniel Smith
                              RHF Reference
                       16 Threads, 104904 MiB Core
         ---------------------------------------------------------

  ==> Geometry <==

    Molecular point group: c1
    Full point group: C1

    Geometry (in Angstrom), charge = 0, multiplicity = 1:

       Center              X                  Y                   Z               Mass       
    ------------   -----------------  -----------------  -----------------  -----------------
         C            0.628820198519    -0.843203156885    -0.913992629829    12.000000000000
         O            1.643694725914     0.617171083613     0.597884696229    15.994914619560
         C            0.508114458456     0.110915291267     0.100254600365    12.000000000000
         C           -0.757270438360     0.470910412826     0.524184630055    12.000000000000
         H           -0.894365916239     1.197573330088     1.298198794245     1.007825032070
         O            4.006163427778     1.538070069143     1.492990755080    15.994914619560
         C           -1.888476812419    -0.102444588959    -0.044634234591    12.000000000000
         C           -1.763177333836    -1.043138711388    -1.044844933989    12.000000000000
         C           -0.492280971042    -1.406819398322    -1.472831975493    12.000000000000
         H           -0.386152381127    -2.137477035360    -2.249997037638     1.007825032070
         C            1.597629911095     1.569803884410     1.608036023636    12.000000000000
         H            1.112138470434     1.186951390164     2.499542654698     1.007825032070
         H            1.071322132583     2.464607342012     1.292773128605     1.007825032070
         C            3.012986272935     1.957650709318     1.970788377492    12.000000000000
         O            2.979515481710     2.870300721308     2.938130587638    15.994914619560
         H            3.874040682745     3.109932768810     3.161583960173     1.007825032070
         CL          -3.133652111779    -1.793479236160    -1.792921926502    34.968852682000
         CL           2.193439950440    -1.323614820946    -1.475495522786    34.968852682000
         CL          -3.435012910170     0.405699740884     0.545677029160    34.968852682000

  Running in c1 symmetry.

  Rotational constants: A =      0.02540  B =      0.00845  C =      0.00635 [cm^-1]
  Rotational constants: A =    761.48391  B =    253.23518  C =    190.26016 [MHz]
  Nuclear repulsion = 1163.143342442774610

  Charge       = 0
  Multiplicity = 1
  Electrons    = 128
  Nalpha       = 64
  Nbeta        = 64

  ==> Algorithm <==

  SCF Algorithm Type is DF.
  DIIS enabled.
  MOM disabled.
  Fractional occupation disabled.
  Guess Type is SAD.
  Energy threshold   = 1.00e-08
  Density threshold  = 1.00e-08
  Integral threshold = 0.00e+00

  ==> Primary Basis <==

  Basis Set: 6-31G(D)
    Blend: 6-31G(D)
    Number of shells: 100
    Number of basis function: 232
    Number of Cartesian functions: 232
    Spherical Harmonics?: false
    Max angular momentum: 2

   => Loading Basis Set <=

    Name: (6-31G(D) AUX)
    Role: JKFIT
    Keyword: DF_BASIS_SCF
    atoms 1, 3-4, 7-9, 11, 14 entry C          line   121 file /usr/local/hpc1/software_molmod/psi4/psi4conda/share/psi4/basis/cc-pvdz-jkfit.gbs 
    atoms 2, 6, 15            entry O          line   221 file /usr/local/hpc1/software_molmod/psi4/psi4conda/share/psi4/basis/cc-pvdz-jkfit.gbs 
    atoms 5, 10, 12-13, 16    entry H          line    51 file /usr/local/hpc1/software_molmod/psi4/psi4conda/share/psi4/basis/cc-pvdz-jkfit.gbs 
    atoms 17-19               entry CL         line   667 file /usr/local/hpc1/software_molmod/psi4/psi4conda/share/psi4/basis/cc-pvdz-jkfit.gbs 

  ==> Pre-Iterations <==

   -------------------------------------------------------
    Irrep   Nso     Nmo     Nalpha   Nbeta   Ndocc  Nsocc
   -------------------------------------------------------
     A        232     232       0       0       0       0
   -------------------------------------------------------
    Total     232     232      64      64      64       0
   -------------------------------------------------------

  ==> Integral Setup <==

  ==> DiskDFJK: Density-Fitted J/K Matrices <==

    J tasked:                  Yes
    K tasked:                  Yes
    wK tasked:                  No
    OpenMP threads:             16
    Integrals threads:          16
    Memory (MB):             78678
    Algorithm:                Core
    Integral Cache:           NONE
    Schwarz Cutoff:          1E-12
    Fitting Condition:       1E-12

   => Auxiliary Basis Set <=

  Basis Set: (6-31G(D) AUX)
    Blend: CC-PVDZ-JKFIT
    Number of shells: 417
    Number of basis function: 1406
    Number of Cartesian functions: 1406
    Spherical Harmonics?: false
    Max angular momentum: 3

  Minimum eigenvalue in the overlap matrix is 3.8049800741E-04.
  Using Symmetric Orthogonalization.

  SCF Guess: Superposition of Atomic Densities via on-the-fly atomic UHF.

  ==> Iterations <==

                           Total Energy        Delta E     RMS |[F,P]|

   @DF-RHF iter   0: -1913.87289601058615   -1.91387e+03   1.09554e-01 
   @DF-RHF iter   1: -1908.44593895528442    5.42696e+00   1.39905e-02 
   @DF-RHF iter   2: -1908.77009259307783   -3.24154e-01   8.01293e-03 DIIS
   @DF-RHF iter   3: -1908.86443397175663   -9.43414e-02   2.28138e-03 DIIS
   @DF-RHF iter   4: -1908.87752452197628   -1.30906e-02   7.16158e-04 DIIS
   @DF-RHF iter   5: -1908.87892112864915   -1.39661e-03   2.52650e-04 DIIS
   @DF-RHF iter   6: -1908.87916753060040   -2.46402e-04   9.44378e-05 DIIS
   @DF-RHF iter   7: -1908.87921944422101   -5.19136e-05   3.74371e-05 DIIS
   @DF-RHF iter   8: -1908.87922833069979   -8.88648e-06   1.56121e-05 DIIS
   @DF-RHF iter   9: -1908.87923023250482   -1.90181e-06   8.15380e-06 DIIS
   @DF-RHF iter  10: -1908.87923070862212   -4.76117e-07   2.74321e-06 DIIS
   @DF-RHF iter  11: -1908.87923075778735   -4.91652e-08   7.59994e-07 DIIS
   @DF-RHF iter  12: -1908.87923076082507   -3.03771e-09   2.82164e-07 DIIS
   @DF-RHF iter  13: -1908.87923076112111   -2.96041e-10   1.01092e-07 DIIS
   @DF-RHF iter  14: -1908.87923076116795   -4.68390e-11   3.62308e-08 DIIS
   @DF-RHF iter  15: -1908.87923076117386   -5.91172e-12   1.34575e-08 DIIS
   @DF-RHF iter  16: -1908.87923076117409   -2.27374e-13   5.62706e-09 DIIS

  ==> Post-Iterations <==

    Orbital Energies [Eh]
    ---------------------

    Doubly Occupied:                                                      

       1A   -104.847526     2A   -104.842766     3A   -104.836526  
       4A    -20.636641     5A    -20.629240     6A    -20.575083  
       7A    -11.406427     8A    -11.346938     9A    -11.336648  
      10A    -11.331485    11A    -11.325568    12A    -11.321016  
      13A    -11.280792    14A    -11.274279    15A    -10.580818  
      16A    -10.575922    17A    -10.569546    18A     -8.050254  
      19A     -8.046741    20A     -8.046720    21A     -8.045373  
      22A     -8.041862    23A     -8.041835    24A     -8.039028  
      25A     -8.035480    26A     -8.035431    27A     -1.501425  
      28A     -1.465222    29A     -1.392073    30A     -1.241591  
      31A     -1.182370    32A     -1.151552    33A     -1.109101  
      34A     -1.063091    35A     -1.027355    36A     -0.980744  
      37A     -0.894503    38A     -0.846415    39A     -0.826175  
      40A     -0.756644    41A     -0.740547    42A     -0.722397  
      43A     -0.715127    44A     -0.697481    45A     -0.671308  
      46A     -0.647822    47A     -0.646505    48A     -0.615764  
      49A     -0.603743    50A     -0.595966    51A     -0.577335  
      52A     -0.566798    53A     -0.546935    54A     -0.529990  
      55A     -0.510568    56A     -0.501178    57A     -0.495254  
      58A     -0.483534    59A     -0.470312    60A     -0.462795  
      61A     -0.456382    62A     -0.448731    63A     -0.363873  
      64A     -0.333268  

    Virtual:                                                              

      65A      0.097872    66A      0.116670    67A      0.151716  
      68A      0.177035    69A      0.209898    70A      0.212974  
      71A      0.225665    72A      0.235093    73A      0.286281  
      74A      0.299902    75A      0.314889    76A      0.315968  
      77A      0.328235    78A      0.391058    79A      0.397983  
      80A      0.441983    81A      0.445066    82A      0.449163  
      83A      0.475960    84A      0.503191    85A      0.522400  
      86A      0.531155    87A      0.550232    88A      0.572214  
      89A      0.589670    90A      0.599575    91A      0.602267  
      92A      0.629185    93A      0.629507    94A      0.634706  
      95A      0.654493    96A      0.656433    97A      0.676196  
      98A      0.685603    99A      0.708195   100A      0.721053  
     101A      0.728415   102A      0.752980   103A      0.785475  
     104A      0.786738   105A      0.790664   106A      0.812487  
     107A      0.820823   108A      0.852646   109A      0.858086  
     110A      0.866929   111A      0.899408   112A      0.925082  
     113A      0.926102   114A      0.944850   115A      0.958442  
     116A      0.970176   117A      0.977292   118A      1.000279  
     119A      1.031896   120A      1.043657   121A      1.051684  
     122A      1.073956   123A      1.086627   124A      1.100190  
     125A      1.110136   126A      1.112971   127A      1.127625  
     128A      1.131989   129A      1.134581   130A      1.137386  
     131A      1.149627   132A      1.160899   133A      1.176502  
     134A      1.180520   135A      1.191000   136A      1.196710  
     137A      1.219293   138A      1.225568   139A      1.252370  
     140A      1.264503   141A      1.291149   142A      1.303565  
     143A      1.305972   144A      1.326905   145A      1.331487  
     146A      1.365694   147A      1.372412   148A      1.418657  
     149A      1.433677   150A      1.445495   151A      1.453130  
     152A      1.483645   153A      1.521579   154A      1.547106  
     155A      1.551542   156A      1.585071   157A      1.626041  
     158A      1.643068   159A      1.648417   160A      1.670383  
     161A      1.685543   162A      1.694486   163A      1.752061  
     164A      1.770064   165A      1.790629   166A      1.797851  
     167A      1.809977   168A      1.830418   169A      1.938675  
     170A      1.959609   171A      1.971003   172A      2.024957  
     173A      2.031854   174A      2.050943   175A      2.085925  
     176A      2.106681   177A      2.120809   178A      2.156452  
     179A      2.200798   180A      2.209431   181A      2.230226  
     182A      2.231094   183A      2.247583   184A      2.319619  
     185A      2.325703   186A      2.365159   187A      2.398162  
     188A      2.403773   189A      2.429196   190A      2.439651  
     191A      2.454028   192A      2.487992   193A      2.515642  
     194A      2.554841   195A      2.592719   196A      2.608757  
     197A      2.661257   198A      2.724888   199A      2.735626  
     200A      2.825714   201A      2.868243   202A      2.873437  
     203A      2.898041   204A      2.944649   205A      2.975919  
     206A      3.025507   207A      3.029239   208A      3.063102  
     209A      3.081924   210A      3.106441   211A      3.117259  
     212A      3.240556   213A      3.253753   214A      3.334790  
     215A      3.428310   216A      3.483905   217A      3.606667  
     218A      3.733038   219A      4.237452   220A      4.432680  
     221A      4.443479   222A      4.478132   223A      4.517069  
     224A      4.632981   225A      4.661758   226A      4.692538  
     227A      4.735446   228A      4.765926   229A      4.818221  
     230A      4.899213   231A      4.925192   232A      5.162787  

    Final Occupation by Irrep:
              A 
    DOCC [    64 ]

  Energy converged.

  @DF-RHF Final Energy: -1908.87923076117409

   => Energetics <=

    Nuclear Repulsion Energy =           1163.1433424427746104
    One-Electron Energy =               -4944.1615031699629981
    Two-Electron Energy =                1872.1389299660143024
    Total Energy =                      -1908.8792307611740853



Properties will be evaluated at   0.000000,   0.000000,   0.000000 [a0]

Properties computed using the SCF density matrix

  Nuclear Dipole Moment: [e a0]
     X:     8.5250      Y:     7.9638      Z:     8.1434

  Electronic Dipole Moment: [e a0]
     X:    -8.5550      Y:    -7.0609      Z:    -7.1865

  Dipole Moment: [e a0]
     X:    -0.0300      Y:     0.9029      Z:     0.9569     Total:     1.3160

  Dipole Moment: [D]
     X:    -0.0763      Y:     2.2948      Z:     2.4322     Total:     3.3448


*** tstop() called on wr59 at Thu Sep 27 12:52:55 2018
Module time:
	user time   =      93.54 seconds =       1.56 minutes
	system time =       2.45 seconds =       0.04 minutes
	total time  =          7 seconds =       0.12 minutes
Total time:
	user time   =      93.54 seconds =       1.56 minutes
	system time =       2.45 seconds =       0.04 minutes
	total time  =          7 seconds =       0.12 minutes

*** tstart() called on wr59
*** at Thu Sep 27 12:52:55 2018


         ------------------------------------------------------------
                                   SCF GRAD                          
                          Rob Parrish, Justin Turney,                
                       Andy Simmonett, and Alex Sokolov              
         ------------------------------------------------------------

  ==> Geometry <==

    Molecular point group: c1
    Full point group: C1

    Geometry (in Angstrom), charge = 0, multiplicity = 1:

       Center              X                  Y                   Z               Mass       
    ------------   -----------------  -----------------  -----------------  -----------------
         C            0.628820198519    -0.843203156885    -0.913992629829    12.000000000000
         O            1.643694725914     0.617171083613     0.597884696229    15.994914619560
         C            0.508114458456     0.110915291267     0.100254600365    12.000000000000
         C           -0.757270438360     0.470910412826     0.524184630055    12.000000000000
         H           -0.894365916239     1.197573330088     1.298198794245     1.007825032070
         O            4.006163427778     1.538070069143     1.492990755080    15.994914619560
         C           -1.888476812419    -0.102444588959    -0.044634234591    12.000000000000
         C           -1.763177333836    -1.043138711388    -1.044844933989    12.000000000000
         C           -0.492280971042    -1.406819398322    -1.472831975493    12.000000000000
         H           -0.386152381127    -2.137477035360    -2.249997037638     1.007825032070
         C            1.597629911095     1.569803884410     1.608036023636    12.000000000000
         H            1.112138470434     1.186951390164     2.499542654698     1.007825032070
         H            1.071322132583     2.464607342012     1.292773128605     1.007825032070
         C            3.012986272935     1.957650709318     1.970788377492    12.000000000000
         O            2.979515481710     2.870300721308     2.938130587638    15.994914619560
         H            3.874040682745     3.109932768810     3.161583960173     1.007825032070
         CL          -3.133652111779    -1.793479236160    -1.792921926502    34.968852682000
         CL           2.193439950440    -1.323614820946    -1.475495522786    34.968852682000
         CL          -3.435012910170     0.405699740884     0.545677029160    34.968852682000

  Nuclear repulsion = 1163.143342442774610

  ==> Basis Set <==

  Basis Set: 6-31G(D)
    Blend: 6-31G(D)
    Number of shells: 100
    Number of basis function: 232
    Number of Cartesian functions: 232
    Spherical Harmonics?: false
    Max angular momentum: 2

  ==> DFJKGrad: Density-Fitted SCF Gradients <==

    Gradient:                    1
    J tasked:                  Yes
    K tasked:                  Yes
    wK tasked:                  No
    OpenMP threads:             16
    Integrals threads:          16
    Memory (MB):             78678
    Schwarz Cutoff:          0E+00
    Fitting Condition:       1E-12

   => Auxiliary Basis Set <=

  Basis Set: (6-31G(D) AUX)
    Blend: CC-PVDZ-JKFIT
    Number of shells: 417
    Number of basis function: 1406
    Number of Cartesian functions: 1406
    Spherical Harmonics?: false
    Max angular momentum: 3


  -Total Gradient:
     Atom            X                  Y                   Z
    ------   -----------------  -----------------  -----------------
       1        0.000003102255    -0.000001075103    -0.000000299854
       2        0.000000033900    -0.000001238767    -0.000000943881
       3       -0.000002381845     0.000001392614    -0.000001827581
       4        0.000002304701    -0.000001241241     0.000000375232
       5       -0.000000451501    -0.000000043212     0.000000456554
       6       -0.000001802539     0.000001773610     0.000001071671
       7       -0.000002978798     0.000001464224     0.000000325358
       8        0.000002503313     0.000001445005    -0.000001831186
       9       -0.000002345308    -0.000000250924     0.000001683947
      10        0.000000807681    -0.000000082359    -0.000000145961
      11       -0.000000664484     0.000000003438     0.000001422045
      12        0.000000645469     0.000000649023    -0.000001000812
      13        0.000000414926    -0.000000465109     0.000000173459
      14        0.000001951460    -0.000004033731    -0.000002329857
      15        0.000000048798     0.000002192274     0.000001256022
      16       -0.000000219106    -0.000000076635     0.000000050592
      17       -0.000000602766    -0.000000536985     0.000000496103
      18       -0.000000628828     0.000000505525     0.000000684001
      19        0.000000262758    -0.000000381673     0.000000384242


*** tstop() called on wr59 at Thu Sep 27 12:53:00 2018
Module time:
	user time   =      64.28 seconds =       1.07 minutes
	system time =       1.42 seconds =       0.02 minutes
	total time  =          5 seconds =       0.08 minutes
Total time:
	user time   =     157.86 seconds =       2.63 minutes
	system time =       3.87 seconds =       0.06 minutes
	total time  =         12 seconds =       0.20 minutes

  Based on options and gradient (rms=3.50E-06), recommend projecting translations and projecting rotations.
hessian() will perform frequency computation by finite difference of analytic gradients.

-------------------------------------------------------------

  Using finite-differences of gradients to determine vibrational frequencies and 
  normal modes.  Resulting frequencies are only valid at stationary points.
	Generating geometries for use with 3-point formula.
	Displacement size will be 5.00e-03.
	Number of atoms is 19.
	Number of irreps is 1.
	Number of SALCS is 51.
	Translations projected? 1. Rotations projected? 1.
	Index of salcs per irrep:
	 1 :  0  1  2  3  4  5  6  7  8  9  10  11  12  13  14  15  16  17  18  19  20  21  22  23  24  25  26  27  28  29  30  31  32  33  34  35  36  37  38  39  40  41  42  43  44  45  46  47  48  49  50 
	Number of SALC's per irrep:
		 Irrep 1: 51
	Number of geometries (including reference) is 103.
	Number of displacements per irrep:
	  Irrep 1: 102

  //>>>>>>>>>>>>>>>>>>>>>>>>>>>>>>>>>>>//
  //   Loading displacement 1 of 103   //
  //<<<<<<<<<<<<<<<<<<<<<<<<<<<<<<<<<<<//
gradient() will perform analytic gradient computation.

*** tstart() called on wr59
*** at Thu Sep 27 12:53:00 2018

   => Loading Basis Set <=

    Name: 6-31G(D)
    Role: ORBITAL
    Keyword: BASIS
    atoms 1, 3-4, 7-9, 11, 14 entry C          line   111 file /usr/local/hpc1/software_molmod/psi4/psi4conda/share/psi4/basis/6-31g_d_.gbs 
    atoms 2, 6, 15            entry O          line   145 file /usr/local/hpc1/software_molmod/psi4/psi4conda/share/psi4/basis/6-31g_d_.gbs 
    atoms 5, 10, 12-13, 16    entry H          line    44 file /usr/local/hpc1/software_molmod/psi4/psi4conda/share/psi4/basis/6-31g_d_.gbs 
    atoms 17-19               entry CL         line   340 file /usr/local/hpc1/software_molmod/psi4/psi4conda/share/psi4/basis/6-31g_d_.gbs 


         ---------------------------------------------------------
                                   SCF
            by Justin Turney, Rob Parrish, Andy Simmonett
                             and Daniel Smith
                              RHF Reference
                       16 Threads, 104904 MiB Core
         ---------------------------------------------------------

  ==> Geometry <==

    Molecular point group: c1
    Full point group: C1

    Geometry (in Angstrom), charge = 0, multiplicity = 1:

       Center              X                  Y                   Z               Mass       
    ------------   -----------------  -----------------  -----------------  -----------------
         C            0.628077406790    -0.843201622047    -0.913990263292    12.000000000000
         O            1.643728057392     0.617175971087     0.597890055277    15.994914619560
         C            0.508150918518     0.110916777341     0.100256280415    12.000000000000
         C           -0.757236439174     0.470908395485     0.524181939708    12.000000000000
         H           -0.894336609042     1.197571146582     1.298195428839     1.007825032070
         O            4.006191102290     1.538081991828     1.493003806723    15.994914619560
         C           -1.888439252349    -0.102450016026    -0.044640569527    12.000000000000
         C           -1.763133705803    -1.043144072408    -1.044850570890    12.000000000000
         C           -0.492234857893    -1.406821241315    -1.472833222340    12.000000000000
         H           -0.386101553916    -2.137478801890    -2.249997712627     1.007825032070
         C            1.597657106879     1.569808935904     1.608040948204    12.000000000000
         H            1.112163759047     1.186955311132     2.499546055171     1.007825032070
         H            1.071347825667     2.464610792254     1.292776017021     1.007825032070
         C            3.013011134191     1.957659924755     1.970797958728    12.000000000000
         O            2.979534466182     2.870310124323     2.938139788560    15.994914619560
         H            3.874058227095     3.109944801793     3.161596105784     1.007825032070
         CL          -3.133603811295    -1.793488745395    -1.792931962552    34.968852682000
         CL           2.193485834031    -1.323608965153    -1.475487742009    34.968852682000
         CL          -3.434978796473     0.405690053149     0.545665332805    34.968852682000

  Running in c1 symmetry.

  Rotational constants: A =      0.02540  B =      0.00845  C =      0.00635 [cm^-1]
  Rotational constants: A =    761.49975  B =    253.23493  C =    190.26101 [MHz]
  Nuclear repulsion = 1163.145188233322415

  Charge       = 0
  Multiplicity = 1
  Electrons    = 128
  Nalpha       = 64
  Nbeta        = 64

  ==> Algorithm <==

  SCF Algorithm Type is DF.
  DIIS enabled.
  MOM disabled.
  Fractional occupation disabled.
  Guess Type is SAD.
  Energy threshold   = 1.00e-08
  Density threshold  = 1.00e-08
  Integral threshold = 0.00e+00

  ==> Primary Basis <==

  Basis Set: 6-31G(D)
    Blend: 6-31G(D)
    Number of shells: 100
    Number of basis function: 232
    Number of Cartesian functions: 232
    Spherical Harmonics?: false
    Max angular momentum: 2

   => Loading Basis Set <=

    Name: (6-31G(D) AUX)
    Role: JKFIT
    Keyword: DF_BASIS_SCF
    atoms 1, 3-4, 7-9, 11, 14 entry C          line   121 file /usr/local/hpc1/software_molmod/psi4/psi4conda/share/psi4/basis/cc-pvdz-jkfit.gbs 
    atoms 2, 6, 15            entry O          line   221 file /usr/local/hpc1/software_molmod/psi4/psi4conda/share/psi4/basis/cc-pvdz-jkfit.gbs 
    atoms 5, 10, 12-13, 16    entry H          line    51 file /usr/local/hpc1/software_molmod/psi4/psi4conda/share/psi4/basis/cc-pvdz-jkfit.gbs 
    atoms 17-19               entry CL         line   667 file /usr/local/hpc1/software_molmod/psi4/psi4conda/share/psi4/basis/cc-pvdz-jkfit.gbs 

  ==> Pre-Iterations <==

   -------------------------------------------------------
    Irrep   Nso     Nmo     Nalpha   Nbeta   Ndocc  Nsocc
   -------------------------------------------------------
     A        232     232       0       0       0       0
   -------------------------------------------------------
    Total     232     232      64      64      64       0
   -------------------------------------------------------

  ==> Integral Setup <==

  ==> DiskDFJK: Density-Fitted J/K Matrices <==

    J tasked:                  Yes
    K tasked:                  Yes
    wK tasked:                  No
    OpenMP threads:             16
    Integrals threads:          16
    Memory (MB):             78678
    Algorithm:                Core
    Integral Cache:           NONE
    Schwarz Cutoff:          1E-12
    Fitting Condition:       1E-12

   => Auxiliary Basis Set <=

  Basis Set: (6-31G(D) AUX)
    Blend: CC-PVDZ-JKFIT
    Number of shells: 417
    Number of basis function: 1406
    Number of Cartesian functions: 1406
    Spherical Harmonics?: false
    Max angular momentum: 3

  Minimum eigenvalue in the overlap matrix is 3.8014040522E-04.
  Using Symmetric Orthogonalization.

  SCF Guess: Superposition of Atomic Densities via on-the-fly atomic UHF.

  ==> Iterations <==

                           Total Energy        Delta E     RMS |[F,P]|

   @DF-RHF iter   0: -1913.51776183194670   -1.91352e+03   1.08221e-01 
   @DF-RHF iter   1: -1908.41264178694178    5.10512e+00   1.43410e-02 
   @DF-RHF iter   2: -1908.74844308053957   -3.35801e-01   9.14179e-03 DIIS
   @DF-RHF iter   3: -1908.86285649028832   -1.14413e-01   2.14255e-03 DIIS
   @DF-RHF iter   4: -1908.87709181147397   -1.42353e-02   7.67735e-04 DIIS
   @DF-RHF iter   5: -1908.87878856941802   -1.69676e-03   2.79200e-04 DIIS
   @DF-RHF iter   6: -1908.87913743965032   -3.48870e-04   1.13838e-04 DIIS
   @DF-RHF iter   7: -1908.87921406411988   -7.66245e-05   4.63553e-05 DIIS
   @DF-RHF iter   8: -1908.87922685667832   -1.27926e-05   2.06580e-05 DIIS
   @DF-RHF iter   9: -1908.87922936749351   -2.51082e-06   9.38706e-06 DIIS
   @DF-RHF iter  10: -1908.87922994969313   -5.82200e-07   3.01696e-06 DIIS
   @DF-RHF iter  11: -1908.87923000524006   -5.55469e-08   9.97850e-07 DIIS
   @DF-RHF iter  12: -1908.87923001023410   -4.99404e-09   4.09590e-07 DIIS
   @DF-RHF iter  13: -1908.87923001092258   -6.88487e-10   1.60593e-07 DIIS
   @DF-RHF iter  14: -1908.87923001107538   -1.52795e-10   6.67942e-08 DIIS
   @DF-RHF iter  15: -1908.87923001110221   -2.68301e-11   2.45319e-08 DIIS
   @DF-RHF iter  16: -1908.87923001110630   -4.09273e-12   1.14145e-08 DIIS
   @DF-RHF iter  17: -1908.87923001110676   -4.54747e-13   5.00864e-09 DIIS

  ==> Post-Iterations <==

    Orbital Energies [Eh]
    ---------------------

    Doubly Occupied:                                                      

       1A   -104.847537     2A   -104.842778     3A   -104.836454  
       4A    -20.636649     5A    -20.629277     6A    -20.575090  
       7A    -11.406437     8A    -11.346968     9A    -11.336658  
      10A    -11.331505    11A    -11.325585    12A    -11.321012  
      13A    -11.280759    14A    -11.274292    15A    -10.580828  
      16A    -10.575934    17A    -10.569464    18A     -8.050264  
      19A     -8.046751    20A     -8.046730    21A     -8.045386  
      22A     -8.041875    23A     -8.041848    24A     -8.038945  
      25A     -8.035398    26A     -8.035350    27A     -1.501433  
      28A     -1.465243    29A     -1.392080    30A     -1.241640  
      31A     -1.182291    32A     -1.151567    33A     -1.109046  
      34A     -1.063135    35A     -1.027416    36A     -0.980774  
      37A     -0.894530    38A     -0.846438    39A     -0.826215  
      40A     -0.756683    41A     -0.740577    42A     -0.722414  
      43A     -0.715136    44A     -0.697511    45A     -0.671288  
      46A     -0.647926    47A     -0.646517    48A     -0.615780  
      49A     -0.603675    50A     -0.595999    51A     -0.577308  
      52A     -0.566812    53A     -0.546934    54A     -0.529930  
      55A     -0.510537    56A     -0.501184    57A     -0.495241  
      58A     -0.483540    59A     -0.470315    60A     -0.462770  
      61A     -0.456381    62A     -0.448750    63A     -0.363953  
      64A     -0.333307  

    Virtual:                                                              

      65A      0.097935    66A      0.116622    67A      0.151655  
      68A      0.177027    69A      0.209794    70A      0.212933  
      71A      0.225653    72A      0.235083    73A      0.286272  
      74A      0.299896    75A      0.314877    76A      0.315955  
      77A      0.328295    78A      0.391036    79A      0.397972  
      80A      0.442138    81A      0.445056    82A      0.449197  
      83A      0.476031    84A      0.503171    85A      0.522453  
      86A      0.531151    87A      0.550216    88A      0.572205  
      89A      0.589689    90A      0.599563    91A      0.602297  
      92A      0.629144    93A      0.629554    94A      0.634713  
      95A      0.654490    96A      0.656418    97A      0.676136  
      98A      0.685659    99A      0.708179   100A      0.721024  
     101A      0.728405   102A      0.752933   103A      0.785459  
     104A      0.786777   105A      0.790620   106A      0.812525  
     107A      0.820764   108A      0.852701   109A      0.858057  
     110A      0.866914   111A      0.899406   112A      0.925039  
     113A      0.926084   114A      0.944830   115A      0.958411  
     116A      0.970200   117A      0.977304   118A      1.000216  
     119A      1.031928   120A      1.043628   121A      1.051751  
     122A      1.073940   123A      1.086619   124A      1.100166  
     125A      1.110139   126A      1.112969   127A      1.127609  
     128A      1.131985   129A      1.134575   130A      1.137425  
     131A      1.149677   132A      1.160909   133A      1.176538  
     134A      1.180675   135A      1.191019   136A      1.196711  
     137A      1.219289   138A      1.225556   139A      1.252371  
     140A      1.264464   141A      1.291108   142A      1.303522  
     143A      1.305987   144A      1.326896   145A      1.331428  
     146A      1.365697   147A      1.372442   148A      1.418721  
     149A      1.433672   150A      1.445426   151A      1.453097  
     152A      1.483606   153A      1.521683   154A      1.547050  
     155A      1.551649   156A      1.585083   157A      1.626028  
     158A      1.643046   159A      1.648400   160A      1.670334  
     161A      1.685649   162A      1.694432   163A      1.752094  
     164A      1.770049   165A      1.790635   166A      1.797813  
     167A      1.809988   168A      1.830404   169A      1.938664  
     170A      1.959599   171A      1.971026   172A      2.024891  
     173A      2.031874   174A      2.050935   175A      2.086020  
     176A      2.106687   177A      2.120861   178A      2.156466  
     179A      2.200786   180A      2.209294   181A      2.230185  
     182A      2.230994   183A      2.247513   184A      2.319688  
     185A      2.325630   186A      2.365204   187A      2.398271  
     188A      2.403726   189A      2.429349   190A      2.439760  
     191A      2.454175   192A      2.488005   193A      2.515589  
     194A      2.554945   195A      2.593014   196A      2.608773  
     197A      2.661172   198A      2.724832   199A      2.735638  
     200A      2.825715   201A      2.868301   202A      2.873377  
     203A      2.898177   204A      2.944813   205A      2.976049  
     206A      3.025518   207A      3.029341   208A      3.063190  
     209A      3.082001   210A      3.106926   211A      3.117223  
     212A      3.240514   213A      3.253768   214A      3.334790  
     215A      3.428379   216A      3.483875   217A      3.606752  
     218A      3.733238   219A      4.237454   220A      4.432669  
     221A      4.443520   222A      4.478261   223A      4.517056  
     224A      4.632966   225A      4.661838   226A      4.692539  
     227A      4.735405   228A      4.765929   229A      4.818141  
     230A      4.899202   231A      4.925282   232A      5.163049  

    Final Occupation by Irrep:
              A 
    DOCC [    64 ]

  Energy converged.

  @DF-RHF Final Energy: -1908.87923001110676

   => Energetics <=

    Nuclear Repulsion Energy =           1163.1451882333224148
    One-Electron Energy =               -4944.1647327369901177
    Two-Electron Energy =                1872.1403144925611741
    Total Energy =                      -1908.8792300111067561



Properties will be evaluated at   0.000000,   0.000000,   0.000000 [a0]

Properties computed using the SCF density matrix

  Nuclear Dipole Moment: [e a0]
     X:     8.5250      Y:     7.9638      Z:     8.1435

  Electronic Dipole Moment: [e a0]
     X:    -8.5561      Y:    -7.0605      Z:    -7.1860

  Dipole Moment: [e a0]
     X:    -0.0311      Y:     0.9033      Z:     0.9574     Total:     1.3167

  Dipole Moment: [D]
     X:    -0.0791      Y:     2.2960      Z:     2.4335     Total:     3.3466


*** tstop() called on wr59 at Thu Sep 27 12:53:08 2018
Module time:
	user time   =     106.42 seconds =       1.77 minutes
	system time =       2.46 seconds =       0.04 minutes
	total time  =          8 seconds =       0.13 minutes
Total time:
	user time   =     264.50 seconds =       4.41 minutes
	system time =       6.33 seconds =       0.11 minutes
	total time  =         20 seconds =       0.33 minutes

*** tstart() called on wr59
*** at Thu Sep 27 12:53:08 2018


         ------------------------------------------------------------
                                   SCF GRAD                          
                          Rob Parrish, Justin Turney,                
                       Andy Simmonett, and Alex Sokolov              
         ------------------------------------------------------------

  ==> Geometry <==

    Molecular point group: c1
    Full point group: C1

    Geometry (in Angstrom), charge = 0, multiplicity = 1:

       Center              X                  Y                   Z               Mass       
    ------------   -----------------  -----------------  -----------------  -----------------
         C            0.628077406790    -0.843201622047    -0.913990263292    12.000000000000
         O            1.643728057392     0.617175971087     0.597890055277    15.994914619560
         C            0.508150918518     0.110916777341     0.100256280415    12.000000000000
         C           -0.757236439174     0.470908395485     0.524181939708    12.000000000000
         H           -0.894336609042     1.197571146582     1.298195428839     1.007825032070
         O            4.006191102290     1.538081991828     1.493003806723    15.994914619560
         C           -1.888439252349    -0.102450016026    -0.044640569527    12.000000000000
         C           -1.763133705803    -1.043144072408    -1.044850570890    12.000000000000
         C           -0.492234857893    -1.406821241315    -1.472833222340    12.000000000000
         H           -0.386101553916    -2.137478801890    -2.249997712627     1.007825032070
         C            1.597657106879     1.569808935904     1.608040948204    12.000000000000
         H            1.112163759047     1.186955311132     2.499546055171     1.007825032070
         H            1.071347825667     2.464610792254     1.292776017021     1.007825032070
         C            3.013011134191     1.957659924755     1.970797958728    12.000000000000
         O            2.979534466182     2.870310124323     2.938139788560    15.994914619560
         H            3.874058227095     3.109944801793     3.161596105784     1.007825032070
         CL          -3.133603811295    -1.793488745395    -1.792931962552    34.968852682000
         CL           2.193485834031    -1.323608965153    -1.475487742009    34.968852682000
         CL          -3.434978796473     0.405690053149     0.545665332805    34.968852682000

  Nuclear repulsion = 1163.145188233322415

  ==> Basis Set <==

  Basis Set: 6-31G(D)
    Blend: 6-31G(D)
    Number of shells: 100
    Number of basis function: 232
    Number of Cartesian functions: 232
    Spherical Harmonics?: false
    Max angular momentum: 2

  ==> DFJKGrad: Density-Fitted SCF Gradients <==

    Gradient:                    1
    J tasked:                  Yes
    K tasked:                  Yes
    wK tasked:                  No
    OpenMP threads:             16
    Integrals threads:          16
    Memory (MB):             78678
    Schwarz Cutoff:          0E+00
    Fitting Condition:       1E-12

   => Auxiliary Basis Set <=

  Basis Set: (6-31G(D) AUX)
    Blend: CC-PVDZ-JKFIT
    Number of shells: 417
    Number of basis function: 1406
    Number of Cartesian functions: 1406
    Spherical Harmonics?: false
    Max angular momentum: 3


  -Total Gradient:
     Atom            X                  Y                   Z
    ------   -----------------  -----------------  -----------------
       1       -0.001016141445    -0.000071937553    -0.000047787422
       2        0.000012737231     0.000064074386     0.000067403744
       3        0.000200023077    -0.000086033028    -0.000097129699
       4       -0.000059218820    -0.000039135462    -0.000037991754
       5        0.000006631152    -0.000001229762    -0.000001352106
       6        0.000002005572     0.000000819331    -0.000000049705
       7        0.000026814467     0.000049200118     0.000049908195
       8        0.000107428754    -0.000027640889    -0.000036532220
       9        0.000449801672     0.000179813188     0.000180364943
      10       -0.000011298484    -0.000005376549    -0.000005594291
      11        0.000009866561    -0.000004381510    -0.000003672330
      12        0.000000638510     0.000001238089     0.000000327309
      13        0.000000389585     0.000000844591     0.000000869967
      14       -0.000005804479    -0.000002091062    -0.000000051651
      15        0.000003071104     0.000003228534     0.000002257880
      16       -0.000000398208     0.000000094582     0.000000238791
      17       -0.000000793111    -0.000001850065    -0.000001144690
      18        0.000275302735    -0.000059134158    -0.000070403999
      19       -0.000001055961    -0.000000502703     0.000000338975


*** tstop() called on wr59 at Thu Sep 27 12:53:13 2018
Module time:
	user time   =      65.23 seconds =       1.09 minutes
	system time =       1.41 seconds =       0.02 minutes
	total time  =          5 seconds =       0.08 minutes
Total time:
	user time   =     329.77 seconds =       5.50 minutes
	system time =       7.74 seconds =       0.13 minutes
	total time  =         25 seconds =       0.42 minutes

  //>>>>>>>>>>>>>>>>>>>>>>>>>>>>>>>>>>>//
  //   Loading displacement 2 of 103   //
  //<<<<<<<<<<<<<<<<<<<<<<<<<<<<<<<<<<<//
gradient() will perform analytic gradient computation.

*** tstart() called on wr59
*** at Thu Sep 27 12:53:13 2018

   => Loading Basis Set <=

    Name: 6-31G(D)
    Role: ORBITAL
    Keyword: BASIS
    atoms 1, 3-4, 7-9, 11, 14 entry C          line   111 file /usr/local/hpc1/software_molmod/psi4/psi4conda/share/psi4/basis/6-31g_d_.gbs 
    atoms 2, 6, 15            entry O          line   145 file /usr/local/hpc1/software_molmod/psi4/psi4conda/share/psi4/basis/6-31g_d_.gbs 
    atoms 5, 10, 12-13, 16    entry H          line    44 file /usr/local/hpc1/software_molmod/psi4/psi4conda/share/psi4/basis/6-31g_d_.gbs 
    atoms 17-19               entry CL         line   340 file /usr/local/hpc1/software_molmod/psi4/psi4conda/share/psi4/basis/6-31g_d_.gbs 


         ---------------------------------------------------------
                                   SCF
            by Justin Turney, Rob Parrish, Andy Simmonett
                             and Daniel Smith
                              RHF Reference
                       16 Threads, 104904 MiB Core
         ---------------------------------------------------------

  ==> Geometry <==

    Molecular point group: c1
    Full point group: C1

    Geometry (in Angstrom), charge = 0, multiplicity = 1:

       Center              X                  Y                   Z               Mass       
    ------------   -----------------  -----------------  -----------------  -----------------
         C            0.629562990248    -0.843204691723    -0.913994996366    12.000000000000
         O            1.643661394436     0.617166196139     0.597879337181    15.994914619560
         C            0.508077998394     0.110913805192     0.100252920315    12.000000000000
         C           -0.757304437546     0.470912430167     0.524187320402    12.000000000000
         H           -0.894395223436     1.197575513593     1.298202159651     1.007825032070
         O            4.006135753266     1.538058146458     1.492977703437    15.994914619560
         C           -1.888514372489    -0.102439161892    -0.044627899655    12.000000000000
         C           -1.763220961869    -1.043133350368    -1.044839297088    12.000000000000
         C           -0.492327084191    -1.406817555329    -1.472830728646    12.000000000000
         H           -0.386203208338    -2.137475268831    -2.249996362649     1.007825032070
         C            1.597602715311     1.569798832915     1.608031099068    12.000000000000
         H            1.112113181821     1.186947469196     2.499539254225     1.007825032070
         H            1.071296439499     2.464603891770     1.292770240189     1.007825032070
         C            3.012961411679     1.957641493880     1.970778796257    12.000000000000
         O            2.979496497238     2.870291318293     2.938121386716    15.994914619560
         H            3.874023138395     3.109920735827     3.161571814562     1.007825032070
         CL          -3.133700412263    -1.793469726925    -1.792911890452    34.968852682000
         CL           2.193394066849    -1.323620676739    -1.475503303563    34.968852682000
         CL          -3.435047023867     0.405709428619     0.545688725515    34.968852682000

  Running in c1 symmetry.

  Rotational constants: A =      0.02540  B =      0.00845  C =      0.00635 [cm^-1]
  Rotational constants: A =    761.46806  B =    253.23542  C =    190.25931 [MHz]
  Nuclear repulsion = 1163.141509395105913

  Charge       = 0
  Multiplicity = 1
  Electrons    = 128
  Nalpha       = 64
  Nbeta        = 64

  ==> Algorithm <==

  SCF Algorithm Type is DF.
  DIIS enabled.
  MOM disabled.
  Fractional occupation disabled.
  Guess Type is SAD.
  Energy threshold   = 1.00e-08
  Density threshold  = 1.00e-08
  Integral threshold = 0.00e+00

  ==> Primary Basis <==

  Basis Set: 6-31G(D)
    Blend: 6-31G(D)
    Number of shells: 100
    Number of basis function: 232
    Number of Cartesian functions: 232
    Spherical Harmonics?: false
    Max angular momentum: 2

   => Loading Basis Set <=

    Name: (6-31G(D) AUX)
    Role: JKFIT
    Keyword: DF_BASIS_SCF
    atoms 1, 3-4, 7-9, 11, 14 entry C          line   121 file /usr/local/hpc1/software_molmod/psi4/psi4conda/share/psi4/basis/cc-pvdz-jkfit.gbs 
    atoms 2, 6, 15            entry O          line   221 file /usr/local/hpc1/software_molmod/psi4/psi4conda/share/psi4/basis/cc-pvdz-jkfit.gbs 
    atoms 5, 10, 12-13, 16    entry H          line    51 file /usr/local/hpc1/software_molmod/psi4/psi4conda/share/psi4/basis/cc-pvdz-jkfit.gbs 
    atoms 17-19               entry CL         line   667 file /usr/local/hpc1/software_molmod/psi4/psi4conda/share/psi4/basis/cc-pvdz-jkfit.gbs 

  ==> Pre-Iterations <==

   -------------------------------------------------------
    Irrep   Nso     Nmo     Nalpha   Nbeta   Ndocc  Nsocc
   -------------------------------------------------------
     A        232     232       0       0       0       0
   -------------------------------------------------------
    Total     232     232      64      64      64       0
   -------------------------------------------------------

  ==> Integral Setup <==

  ==> DiskDFJK: Density-Fitted J/K Matrices <==

    J tasked:                  Yes
    K tasked:                  Yes
    wK tasked:                  No
    OpenMP threads:             16
    Integrals threads:          16
    Memory (MB):             78678
    Algorithm:                Core
    Integral Cache:           NONE
    Schwarz Cutoff:          1E-12
    Fitting Condition:       1E-12

   => Auxiliary Basis Set <=

  Basis Set: (6-31G(D) AUX)
    Blend: CC-PVDZ-JKFIT
    Number of shells: 417
    Number of basis function: 1406
    Number of Cartesian functions: 1406
    Spherical Harmonics?: false
    Max angular momentum: 3

  Minimum eigenvalue in the overlap matrix is 3.8085676040E-04.
  Using Symmetric Orthogonalization.

  SCF Guess: Superposition of Atomic Densities via on-the-fly atomic UHF.

  ==> Iterations <==

                           Total Energy        Delta E     RMS |[F,P]|

   @DF-RHF iter   0: -1914.14150372263225   -1.91414e+03   1.09772e-01 
   @DF-RHF iter   1: -1908.41865093685601    5.72285e+00   1.33477e-02 
   @DF-RHF iter   2: -1908.76258975417318   -3.43939e-01   8.24531e-03 DIIS
   @DF-RHF iter   3: -1908.86242294429826   -9.98332e-02   2.31192e-03 DIIS
   @DF-RHF iter   4: -1908.87744605254920   -1.50231e-02   6.99037e-04 DIIS
   @DF-RHF iter   5: -1908.87894673330175   -1.50068e-03   2.70116e-04 DIIS
   @DF-RHF iter   6: -1908.87919636900915   -2.49636e-04   8.40454e-05 DIIS
   @DF-RHF iter   7: -1908.87922650492715   -3.01359e-05   2.63051e-05 DIIS
   @DF-RHF iter   8: -1908.87922935400206   -2.84907e-06   1.08751e-05 DIIS
   @DF-RHF iter   9: -1908.87922983560611   -4.81604e-07   4.92620e-06 DIIS
   @DF-RHF iter  10: -1908.87922996496195   -1.29356e-07   2.09606e-06 DIIS
   @DF-RHF iter  11: -1908.87922999454690   -2.95850e-08   7.89094e-07 DIIS
   @DF-RHF iter  12: -1908.87922999895409   -4.40718e-09   3.16022e-07 DIIS
   @DF-RHF iter  13: -1908.87922999946272   -5.08635e-10   1.22763e-07 DIIS
   @DF-RHF iter  14: -1908.87922999954867   -8.59472e-11   4.08480e-08 DIIS
   @DF-RHF iter  15: -1908.87922999955572   -7.04858e-12   1.48432e-08 DIIS
   @DF-RHF iter  16: -1908.87922999955936   -3.63798e-12   4.78119e-09 DIIS

  ==> Post-Iterations <==

    Orbital Energies [Eh]
    ---------------------

    Doubly Occupied:                                                      

       1A   -104.847515     2A   -104.842754     3A   -104.836598  
       4A    -20.636634     5A    -20.629203     6A    -20.575076  
       7A    -11.406418     8A    -11.346908     9A    -11.336638  
      10A    -11.331465    11A    -11.325552    12A    -11.321020  
      13A    -11.280826    14A    -11.274266    15A    -10.580807  
      16A    -10.575910    17A    -10.569628    18A     -8.050243  
      19A     -8.046730    20A     -8.046709    21A     -8.045361  
      22A     -8.041850    23A     -8.041823    24A     -8.039111  
      25A     -8.035561    26A     -8.035512    27A     -1.501417  
      28A     -1.465202    29A     -1.392067    30A     -1.241542  
      31A     -1.182450    32A     -1.151538    33A     -1.109155  
      34A     -1.063048    35A     -1.027294    36A     -0.980714  
      37A     -0.894476    38A     -0.846392    39A     -0.826134  
      40A     -0.756605    41A     -0.740517    42A     -0.722380  
      43A     -0.715119    44A     -0.697451    45A     -0.671329  
      46A     -0.647718    47A     -0.646492    48A     -0.615747  
      49A     -0.603812    50A     -0.595932    51A     -0.577362  
      52A     -0.566784    53A     -0.546937    54A     -0.530049  
      55A     -0.510598    56A     -0.501172    57A     -0.495267  
      58A     -0.483528    59A     -0.470309    60A     -0.462820  
      61A     -0.456382    62A     -0.448711    63A     -0.363793  
      64A     -0.333228  

    Virtual:                                                              

      65A      0.097808    66A      0.116718    67A      0.151777  
      68A      0.177042    69A      0.209999    70A      0.213016  
      71A      0.225677    72A      0.235102    73A      0.286291  
      74A      0.299908    75A      0.314901    76A      0.315981  
      77A      0.328175    78A      0.391080    79A      0.397994  
      80A      0.441825    81A      0.445075    82A      0.449131  
      83A      0.475890    84A      0.503211    85A      0.522346  
      86A      0.531159    87A      0.550248    88A      0.572222  
      89A      0.589650    90A      0.599587    91A      0.602238  
      92A      0.629224    93A      0.629459    94A      0.634699  
      95A      0.654495    96A      0.656447    97A      0.676255  
      98A      0.685547    99A      0.708211   100A      0.721081  
     101A      0.728425   102A      0.753028   103A      0.785491  
     104A      0.786698   105A      0.790709   106A      0.812450  
     107A      0.820881   108A      0.852591   109A      0.858114  
     110A      0.866944   111A      0.899409   112A      0.925124  
     113A      0.926120   114A      0.944870   115A      0.958473  
     116A      0.970153   117A      0.977279   118A      1.000343  
     119A      1.031864   120A      1.043686   121A      1.051616  
     122A      1.073973   123A      1.086635   124A      1.100214  
     125A      1.110133   126A      1.112974   127A      1.127640  
     128A      1.131992   129A      1.134587   130A      1.137346  
     131A      1.149578   132A      1.160890   133A      1.176466  
     134A      1.180366   135A      1.190982   136A      1.196710  
     137A      1.219298   138A      1.225580   139A      1.252370  
     140A      1.264542   141A      1.291190   142A      1.303609  
     143A      1.305957   144A      1.326913   145A      1.331548  
     146A      1.365691   147A      1.372383   148A      1.418591  
     149A      1.433681   150A      1.445566   151A      1.453164  
     152A      1.483685   153A      1.521475   154A      1.547162  
     155A      1.551435   156A      1.585059   157A      1.626054  
     158A      1.643090   159A      1.648434   160A      1.670432  
     161A      1.685437   162A      1.694540   163A      1.752027  
     164A      1.770079   165A      1.790623   166A      1.797890  
     167A      1.809965   168A      1.830434   169A      1.938685  
     170A      1.959619   171A      1.970980   172A      2.025022  
     173A      2.031834   174A      2.050950   175A      2.085831  
     176A      2.106674   177A      2.120758   178A      2.156437  
     179A      2.200809   180A      2.209567   181A      2.230267  
     182A      2.231194   183A      2.247654   184A      2.319550  
     185A      2.325778   186A      2.365113   187A      2.398052  
     188A      2.403820   189A      2.429043   190A      2.439543  
     191A      2.453883   192A      2.487979   193A      2.515694  
     194A      2.554735   195A      2.592426   196A      2.608742  
     197A      2.661343   198A      2.724944   199A      2.735613  
     200A      2.825713   201A      2.868185   202A      2.873497  
     203A      2.897904   204A      2.944484   205A      2.975789  
     206A      3.025496   207A      3.029131   208A      3.063013  
     209A      3.081853   210A      3.105955   211A      3.117297  
     212A      3.240596   213A      3.253739   214A      3.334789  
     215A      3.428241   216A      3.483935   217A      3.606582  
     218A      3.732839   219A      4.237451   220A      4.432691  
     221A      4.443437   222A      4.478005   223A      4.517081  
     224A      4.632996   225A      4.661677   226A      4.692537  
     227A      4.735486   228A      4.765922   229A      4.818302  
     230A      4.899224   231A      4.925101   232A      5.162526  

    Final Occupation by Irrep:
              A 
    DOCC [    64 ]

  Energy converged.

  @DF-RHF Final Energy: -1908.87922999955936

   => Energetics <=

    Nuclear Repulsion Energy =           1163.1415093951059134
    One-Electron Energy =               -4944.1582950876472751
    Two-Electron Energy =                1872.1375556929820050
    Total Energy =                      -1908.8792299995593567



Properties will be evaluated at   0.000000,   0.000000,   0.000000 [a0]

Properties computed using the SCF density matrix

  Nuclear Dipole Moment: [e a0]
     X:     8.5249      Y:     7.9638      Z:     8.1434

  Electronic Dipole Moment: [e a0]
     X:    -8.5538      Y:    -7.0614      Z:    -7.1870

  Dipole Moment: [e a0]
     X:    -0.0289      Y:     0.9024      Z:     0.9564     Total:     1.3153

  Dipole Moment: [D]
     X:    -0.0734      Y:     2.2937      Z:     2.4309     Total:     3.3431


*** tstop() called on wr59 at Thu Sep 27 12:53:22 2018
Module time:
	user time   =     108.82 seconds =       1.81 minutes
	system time =       3.90 seconds =       0.06 minutes
	total time  =          9 seconds =       0.15 minutes
Total time:
	user time   =     438.79 seconds =       7.31 minutes
	system time =      11.64 seconds =       0.19 minutes
	total time  =         34 seconds =       0.57 minutes

*** tstart() called on wr59
*** at Thu Sep 27 12:53:22 2018


         ------------------------------------------------------------
                                   SCF GRAD                          
                          Rob Parrish, Justin Turney,                
                       Andy Simmonett, and Alex Sokolov              
         ------------------------------------------------------------

  ==> Geometry <==

    Molecular point group: c1
    Full point group: C1

    Geometry (in Angstrom), charge = 0, multiplicity = 1:

       Center              X                  Y                   Z               Mass       
    ------------   -----------------  -----------------  -----------------  -----------------
         C            0.629562990248    -0.843204691723    -0.913994996366    12.000000000000
         O            1.643661394436     0.617166196139     0.597879337181    15.994914619560
         C            0.508077998394     0.110913805192     0.100252920315    12.000000000000
         C           -0.757304437546     0.470912430167     0.524187320402    12.000000000000
         H           -0.894395223436     1.197575513593     1.298202159651     1.007825032070
         O            4.006135753266     1.538058146458     1.492977703437    15.994914619560
         C           -1.888514372489    -0.102439161892    -0.044627899655    12.000000000000
         C           -1.763220961869    -1.043133350368    -1.044839297088    12.000000000000
         C           -0.492327084191    -1.406817555329    -1.472830728646    12.000000000000
         H           -0.386203208338    -2.137475268831    -2.249996362649     1.007825032070
         C            1.597602715311     1.569798832915     1.608031099068    12.000000000000
         H            1.112113181821     1.186947469196     2.499539254225     1.007825032070
         H            1.071296439499     2.464603891770     1.292770240189     1.007825032070
         C            3.012961411679     1.957641493880     1.970778796257    12.000000000000
         O            2.979496497238     2.870291318293     2.938121386716    15.994914619560
         H            3.874023138395     3.109920735827     3.161571814562     1.007825032070
         CL          -3.133700412263    -1.793469726925    -1.792911890452    34.968852682000
         CL           2.193394066849    -1.323620676739    -1.475503303563    34.968852682000
         CL          -3.435047023867     0.405709428619     0.545688725515    34.968852682000

  Nuclear repulsion = 1163.141509395105913

  ==> Basis Set <==

  Basis Set: 6-31G(D)
    Blend: 6-31G(D)
    Number of shells: 100
    Number of basis function: 232
    Number of Cartesian functions: 232
    Spherical Harmonics?: false
    Max angular momentum: 2

  ==> DFJKGrad: Density-Fitted SCF Gradients <==

    Gradient:                    1
    J tasked:                  Yes
    K tasked:                  Yes
    wK tasked:                  No
    OpenMP threads:             16
    Integrals threads:          16
    Memory (MB):             78678
    Schwarz Cutoff:          0E+00
    Fitting Condition:       1E-12

   => Auxiliary Basis Set <=

  Basis Set: (6-31G(D) AUX)
    Blend: CC-PVDZ-JKFIT
    Number of shells: 417
    Number of basis function: 1406
    Number of Cartesian functions: 1406
    Spherical Harmonics?: false
    Max angular momentum: 3


  -Total Gradient:
     Atom            X                  Y                   Z
    ------   -----------------  -----------------  -----------------
       1        0.001021323799     0.000067625019     0.000044988274
       2       -0.000012507484    -0.000066529774    -0.000069272117
       3       -0.000203892444     0.000089149638     0.000093853538
       4        0.000061452565     0.000036621201     0.000038660809
       5       -0.000007798729     0.000001326665     0.000002445161
       6       -0.000005545590     0.000002694528     0.000002188757
       7       -0.000032266602    -0.000046446028    -0.000049426123
       8       -0.000102089449     0.000030612935     0.000032969027
       9       -0.000451705412    -0.000178910608    -0.000175699156
      10        0.000012776379     0.000004947284     0.000005065633
      11       -0.000010787619     0.000004540364     0.000006662251
      12        0.000000584804    -0.000000011268    -0.000002270013
      13        0.000000361712    -0.000001716279    -0.000000588520
      14        0.000009556705    -0.000006051907    -0.000004714752
      15       -0.000003031400     0.000001169411     0.000000271167
      16        0.000000002297    -0.000000233466    -0.000000122718
      17       -0.000000271967     0.000000799771     0.000002167191
      18       -0.000277887685     0.000060662557     0.000072364354
      19        0.000001726306    -0.000000250060     0.000000457341


*** tstop() called on wr59 at Thu Sep 27 12:53:26 2018
Module time:
	user time   =      64.05 seconds =       1.07 minutes
	system time =       1.51 seconds =       0.03 minutes
	total time  =          4 seconds =       0.07 minutes
Total time:
	user time   =     502.87 seconds =       8.38 minutes
	system time =      13.15 seconds =       0.22 minutes
	total time  =         38 seconds =       0.63 minutes

  //>>>>>>>>>>>>>>>>>>>>>>>>>>>>>>>>>>>//
  //   Loading displacement 3 of 103   //
  //<<<<<<<<<<<<<<<<<<<<<<<<<<<<<<<<<<<//
gradient() will perform analytic gradient computation.

*** tstart() called on wr59
*** at Thu Sep 27 12:53:26 2018

   => Loading Basis Set <=

    Name: 6-31G(D)
    Role: ORBITAL
    Keyword: BASIS
    atoms 1, 3-4, 7-9, 11, 14 entry C          line   111 file /usr/local/hpc1/software_molmod/psi4/psi4conda/share/psi4/basis/6-31g_d_.gbs 
    atoms 2, 6, 15            entry O          line   145 file /usr/local/hpc1/software_molmod/psi4/psi4conda/share/psi4/basis/6-31g_d_.gbs 
    atoms 5, 10, 12-13, 16    entry H          line    44 file /usr/local/hpc1/software_molmod/psi4/psi4conda/share/psi4/basis/6-31g_d_.gbs 
    atoms 17-19               entry CL         line   340 file /usr/local/hpc1/software_molmod/psi4/psi4conda/share/psi4/basis/6-31g_d_.gbs 


         ---------------------------------------------------------
                                   SCF
            by Justin Turney, Rob Parrish, Andy Simmonett
                             and Daniel Smith
                              RHF Reference
                       16 Threads, 104904 MiB Core
         ---------------------------------------------------------

  ==> Geometry <==

    Molecular point group: c1
    Full point group: C1

    Geometry (in Angstrom), charge = 0, multiplicity = 1:

       Center              X                  Y                   Z               Mass       
    ------------   -----------------  -----------------  -----------------  -----------------
         C            0.628820198519    -0.843941070570    -0.914005694838    12.000000000000
         O            1.643693378827     0.617211146772     0.597885822839    15.994914619560
         C            0.508114250841     0.110954545267     0.100253949911    12.000000000000
         C           -0.757271175294     0.470936530453     0.524193554854    12.000000000000
         H           -0.894368049227     1.197588920311     1.298217355149     1.007825032070
         O            4.006159967440     1.538113568367     1.492993924154    15.994914619560
         C           -1.888476279837    -0.102418363243    -0.044627943421    12.000000000000
         C           -1.763174986863    -1.043099202885    -1.044850907932    12.000000000000
         C           -0.492278088195    -1.406766668589    -1.472847592874    12.000000000000
         H           -0.386148090124    -2.137413930574    -2.250022216908     1.007825032070
         C            1.597626715550     1.569831031113     1.608049246939    12.000000000000
         H            1.112141220209     1.186964382990     2.499553037365     1.007825032070
         H            1.071312132195     2.464635171883     1.292799651101     1.007825032070
         C            3.012982130307     1.957682084140     1.970800775431    12.000000000000
         O            2.979509566552     2.870319792956     2.938154531816    15.994914619560
         H            3.874034179727     3.109954585354     3.161607314028     1.007825032070
         CL          -3.133648118137    -1.793438859656    -1.792931787765    34.968852682000
         CL           2.193442307393    -1.323545427563    -1.475520868604    34.968852682000
         CL          -3.435013157133     0.405709008823     0.545695875406    34.968852682000

  Running in c1 symmetry.

  Rotational constants: A =      0.02540  B =      0.00845  C =      0.00635 [cm^-1]
  Rotational constants: A =    761.46658  B =    253.23506  C =    190.25902 [MHz]
  Nuclear repulsion = 1163.139278584094200

  Charge       = 0
  Multiplicity = 1
  Electrons    = 128
  Nalpha       = 64
  Nbeta        = 64

  ==> Algorithm <==

  SCF Algorithm Type is DF.
  DIIS enabled.
  MOM disabled.
  Fractional occupation disabled.
  Guess Type is SAD.
  Energy threshold   = 1.00e-08
  Density threshold  = 1.00e-08
  Integral threshold = 0.00e+00

  ==> Primary Basis <==

  Basis Set: 6-31G(D)
    Blend: 6-31G(D)
    Number of shells: 100
    Number of basis function: 232
    Number of Cartesian functions: 232
    Spherical Harmonics?: false
    Max angular momentum: 2

   => Loading Basis Set <=

    Name: (6-31G(D) AUX)
    Role: JKFIT
    Keyword: DF_BASIS_SCF
    atoms 1, 3-4, 7-9, 11, 14 entry C          line   121 file /usr/local/hpc1/software_molmod/psi4/psi4conda/share/psi4/basis/cc-pvdz-jkfit.gbs 
    atoms 2, 6, 15            entry O          line   221 file /usr/local/hpc1/software_molmod/psi4/psi4conda/share/psi4/basis/cc-pvdz-jkfit.gbs 
    atoms 5, 10, 12-13, 16    entry H          line    51 file /usr/local/hpc1/software_molmod/psi4/psi4conda/share/psi4/basis/cc-pvdz-jkfit.gbs 
    atoms 17-19               entry CL         line   667 file /usr/local/hpc1/software_molmod/psi4/psi4conda/share/psi4/basis/cc-pvdz-jkfit.gbs 

  ==> Pre-Iterations <==

   -------------------------------------------------------
    Irrep   Nso     Nmo     Nalpha   Nbeta   Ndocc  Nsocc
   -------------------------------------------------------
     A        232     232       0       0       0       0
   -------------------------------------------------------
    Total     232     232      64      64      64       0
   -------------------------------------------------------

  ==> Integral Setup <==

  ==> DiskDFJK: Density-Fitted J/K Matrices <==

    J tasked:                  Yes
    K tasked:                  Yes
    wK tasked:                  No
    OpenMP threads:             16
    Integrals threads:          16
    Memory (MB):             78678
    Algorithm:                Core
    Integral Cache:           NONE
    Schwarz Cutoff:          1E-12
    Fitting Condition:       1E-12

   => Auxiliary Basis Set <=

  Basis Set: (6-31G(D) AUX)
    Blend: CC-PVDZ-JKFIT
    Number of shells: 417
    Number of basis function: 1406
    Number of Cartesian functions: 1406
    Spherical Harmonics?: false
    Max angular momentum: 3

  Minimum eigenvalue in the overlap matrix is 3.8059595519E-04.
  Using Symmetric Orthogonalization.

  SCF Guess: Superposition of Atomic Densities via on-the-fly atomic UHF.

  ==> Iterations <==

                           Total Energy        Delta E     RMS |[F,P]|

   @DF-RHF iter   0: -1914.09043429575854   -1.91409e+03   1.09798e-01 
   @DF-RHF iter   1: -1908.42245785125260    5.66798e+00   1.37328e-02 
   @DF-RHF iter   2: -1908.75495992798119   -3.32502e-01   8.39887e-03 DIIS
   @DF-RHF iter   3: -1908.86086697294786   -1.05907e-01   2.20957e-03 DIIS
   @DF-RHF iter   4: -1908.87687324713806   -1.60063e-02   8.36218e-04 DIIS
   @DF-RHF iter   5: -1908.87877926191641   -1.90601e-03   2.93387e-04 DIIS
   @DF-RHF iter   6: -1908.87916045471707   -3.81193e-04   1.10022e-04 DIIS
   @DF-RHF iter   7: -1908.87922008244914   -5.96277e-05   3.97424e-05 DIIS
   @DF-RHF iter   8: -1908.87922789004369   -7.80759e-06   1.85357e-05 DIIS
   @DF-RHF iter   9: -1908.87922974671574   -1.85667e-06   8.15604e-06 DIIS
   @DF-RHF iter  10: -1908.87923023682174   -4.90106e-07   2.94443e-06 DIIS
   @DF-RHF iter  11: -1908.87923029844228   -6.16205e-08   1.09384e-06 DIIS
   @DF-RHF iter  12: -1908.87923030606635   -7.62407e-09   4.66794e-07 DIIS
   @DF-RHF iter  13: -1908.87923030715319   -1.08685e-09   1.80243e-07 DIIS
   @DF-RHF iter  14: -1908.87923030737397   -2.20780e-10   7.08316e-08 DIIS
   @DF-RHF iter  15: -1908.87923030740376   -2.97860e-11   2.18624e-08 DIIS
   @DF-RHF iter  16: -1908.87923030740740   -3.63798e-12   1.19300e-08 DIIS
   @DF-RHF iter  17: -1908.87923030740899   -1.59162e-12   5.28606e-09 DIIS

  ==> Post-Iterations <==

    Orbital Energies [Eh]
    ---------------------

    Doubly Occupied:                                                      

       1A   -104.847518     2A   -104.842757     3A   -104.836549  
       4A    -20.636645     5A    -20.629259     6A    -20.575087  
       7A    -11.406432     8A    -11.346991     9A    -11.336637  
      10A    -11.331490    11A    -11.325552    12A    -11.321028  
      13A    -11.280742    14A    -11.274255    15A    -10.580809  
      16A    -10.575913    17A    -10.569573    18A     -8.050246  
      19A     -8.046732    20A     -8.046712    21A     -8.045365  
      22A     -8.041854    23A     -8.041827    24A     -8.039055  
      25A     -8.035506    26A     -8.035458    27A     -1.501429  
      28A     -1.465225    29A     -1.392077    30A     -1.241578  
      31A     -1.182395    32A     -1.151540    33A     -1.109106  
      34A     -1.063094    35A     -1.027382    36A     -0.980698  
      37A     -0.894469    38A     -0.846386    39A     -0.826193  
      40A     -0.756650    41A     -0.740541    42A     -0.722398  
      43A     -0.715126    44A     -0.697481    45A     -0.671308  
      46A     -0.647799    47A     -0.646501    48A     -0.615766  
      49A     -0.603781    50A     -0.595957    51A     -0.577329  
      52A     -0.566816    53A     -0.546924    54A     -0.529959  
      55A     -0.510602    56A     -0.501182    57A     -0.495254  
      58A     -0.483525    59A     -0.470317    60A     -0.462797  
      61A     -0.456394    62A     -0.448725    63A     -0.363906  
      64A     -0.333208  

    Virtual:                                                              

      65A      0.097918    66A      0.116651    67A      0.151734  
      68A      0.177029    69A      0.209935    70A      0.212977  
      71A      0.225666    72A      0.235112    73A      0.286281  
      74A      0.299911    75A      0.314888    76A      0.315976  
      77A      0.328211    78A      0.391055    79A      0.397977  
      80A      0.441966    81A      0.445056    82A      0.449169  
      83A      0.475949    84A      0.503190    85A      0.522354  
      86A      0.531173    87A      0.550237    88A      0.572166  
      89A      0.589655    90A      0.599583    91A      0.602258  
      92A      0.629174    93A      0.629485    94A      0.634693  
      95A      0.654499    96A      0.656446    97A      0.676169  
      98A      0.685613    99A      0.708195   100A      0.721063  
     101A      0.728412   102A      0.752964   103A      0.785473  
     104A      0.786772   105A      0.790656   106A      0.812572  
     107A      0.820833   108A      0.852626   109A      0.858108  
     110A      0.866959   111A      0.899357   112A      0.925085  
     113A      0.926106   114A      0.944849   115A      0.958448  
     116A      0.970152   117A      0.977287   118A      1.000311  
     119A      1.031908   120A      1.043651   121A      1.051716  
     122A      1.073955   123A      1.086621   124A      1.100201  
     125A      1.110141   126A      1.112987   127A      1.127580  
     128A      1.131994   129A      1.134582   130A      1.137380  
     131A      1.149611   132A      1.160915   133A      1.176508  
     134A      1.180472   135A      1.191004   136A      1.196705  
     137A      1.219307   138A      1.225584   139A      1.252372  
     140A      1.264511   141A      1.291081   142A      1.303592  
     143A      1.305964   144A      1.326927   145A      1.331525  
     146A      1.365680   147A      1.372431   148A      1.418640  
     149A      1.433642   150A      1.445532   151A      1.453128  
     152A      1.483691   153A      1.521581   154A      1.547103  
     155A      1.551590   156A      1.585101   157A      1.626044  
     158A      1.643080   159A      1.648419   160A      1.670409  
     161A      1.685528   162A      1.694565   163A      1.752017  
     164A      1.770076   165A      1.790611   166A      1.797839  
     167A      1.809938   168A      1.830444   169A      1.938657  
     170A      1.959605   171A      1.970994   172A      2.024770  
     173A      2.031823   174A      2.050938   175A      2.085891  
     176A      2.106691   177A      2.120899   178A      2.156398  
     179A      2.200793   180A      2.209482   181A      2.230238  
     182A      2.230996   183A      2.247648   184A      2.319494  
     185A      2.325733   186A      2.365139   187A      2.398238  
     188A      2.403801   189A      2.429169   190A      2.439674  
     191A      2.454013   192A      2.487993   193A      2.515638  
     194A      2.554759   195A      2.592892   196A      2.608705  
     197A      2.661196   198A      2.724888   199A      2.735613  
     200A      2.825702   201A      2.868210   202A      2.873468  
     203A      2.897957   204A      2.944593   205A      2.975879  
     206A      3.025489   207A      3.029093   208A      3.063088  
     209A      3.082080   210A      3.106392   211A      3.117259  
     212A      3.240530   213A      3.253823   214A      3.334778  
     215A      3.428297   216A      3.483911   217A      3.606511  
     218A      3.732895   219A      4.237446   220A      4.432696  
     221A      4.443457   222A      4.478197   223A      4.517039  
     224A      4.632966   225A      4.661770   226A      4.692526  
     227A      4.735473   228A      4.765948   229A      4.818208  
     230A      4.899211   231A      4.925067   232A      5.162699  

    Final Occupation by Irrep:
              A 
    DOCC [    64 ]

  Energy converged.

  @DF-RHF Final Energy: -1908.87923030740899

   => Energetics <=

    Nuclear Repulsion Energy =           1163.1392785840941997
    One-Electron Energy =               -4944.1533952864974708
    Two-Electron Energy =                1872.1348863949940551
    Total Energy =                      -1908.8792303074089887



Properties will be evaluated at   0.000000,   0.000000,   0.000000 [a0]

Properties computed using the SCF density matrix

  Nuclear Dipole Moment: [e a0]
     X:     8.5249      Y:     7.9638      Z:     8.1435

  Electronic Dipole Moment: [e a0]
     X:    -8.5542      Y:    -7.0609      Z:    -7.1867

  Dipole Moment: [e a0]
     X:    -0.0293      Y:     0.9029      Z:     0.9568     Total:     1.3159

  Dipole Moment: [D]
     X:    -0.0744      Y:     2.2949      Z:     2.4320     Total:     3.3447


*** tstop() called on wr59 at Thu Sep 27 12:53:34 2018
Module time:
	user time   =     103.52 seconds =       1.73 minutes
	system time =       2.62 seconds =       0.04 minutes
	total time  =          8 seconds =       0.13 minutes
Total time:
	user time   =     606.57 seconds =      10.11 minutes
	system time =      15.79 seconds =       0.26 minutes
	total time  =         46 seconds =       0.77 minutes

*** tstart() called on wr59
*** at Thu Sep 27 12:53:34 2018


         ------------------------------------------------------------
                                   SCF GRAD                          
                          Rob Parrish, Justin Turney,                
                       Andy Simmonett, and Alex Sokolov              
         ------------------------------------------------------------

  ==> Geometry <==

    Molecular point group: c1
    Full point group: C1

    Geometry (in Angstrom), charge = 0, multiplicity = 1:

       Center              X                  Y                   Z               Mass       
    ------------   -----------------  -----------------  -----------------  -----------------
         C            0.628820198519    -0.843941070570    -0.914005694838    12.000000000000
         O            1.643693378827     0.617211146772     0.597885822839    15.994914619560
         C            0.508114250841     0.110954545267     0.100253949911    12.000000000000
         C           -0.757271175294     0.470936530453     0.524193554854    12.000000000000
         H           -0.894368049227     1.197588920311     1.298217355149     1.007825032070
         O            4.006159967440     1.538113568367     1.492993924154    15.994914619560
         C           -1.888476279837    -0.102418363243    -0.044627943421    12.000000000000
         C           -1.763174986863    -1.043099202885    -1.044850907932    12.000000000000
         C           -0.492278088195    -1.406766668589    -1.472847592874    12.000000000000
         H           -0.386148090124    -2.137413930574    -2.250022216908     1.007825032070
         C            1.597626715550     1.569831031113     1.608049246939    12.000000000000
         H            1.112141220209     1.186964382990     2.499553037365     1.007825032070
         H            1.071312132195     2.464635171883     1.292799651101     1.007825032070
         C            3.012982130307     1.957682084140     1.970800775431    12.000000000000
         O            2.979509566552     2.870319792956     2.938154531816    15.994914619560
         H            3.874034179727     3.109954585354     3.161607314028     1.007825032070
         CL          -3.133648118137    -1.793438859656    -1.792931787765    34.968852682000
         CL           2.193442307393    -1.323545427563    -1.475520868604    34.968852682000
         CL          -3.435013157133     0.405709008823     0.545695875406    34.968852682000

  Nuclear repulsion = 1163.139278584094200

  ==> Basis Set <==

  Basis Set: 6-31G(D)
    Blend: 6-31G(D)
    Number of shells: 100
    Number of basis function: 232
    Number of Cartesian functions: 232
[...]
     12   H               -0.00  0.11  0.13   -0.08 -0.13 -0.14   -0.01 -0.17 -0.20   
     13   H                0.00  0.12  0.12   -0.08 -0.14 -0.13   -0.01 -0.19 -0.19   
     14   C                0.01  0.02  0.02   -0.00 -0.01 -0.01   -0.03 -0.04 -0.04   
     15   O               -0.00 -0.04 -0.04    0.00  0.02  0.02   -0.01  0.06  0.07   
     16   H               -0.05  0.04  0.04    0.02 -0.01 -0.01    0.10 -0.13 -0.14   
     17   CL               0.02  0.01  0.01    0.01  0.01  0.01    0.00 -0.00 -0.00   
     18   CL              -0.05  0.02  0.02   -0.01  0.00  0.00   -0.02  0.01  0.01   
     19   CL              -0.01  0.01  0.01    0.02 -0.01 -0.01   -0.00  0.00  0.00   

  Vibration                       40                  41                  42          
  Freq [cm^-1]                1281.0307           1309.0617           1397.6284       
  Irrep                           A                   A                   A           
  Reduced mass [u]              2.8381              2.6564              1.2939        
  Force const [mDyne/A]         2.7440              2.6820              1.4891        
  Turning point v=0 [a0]        0.1820              0.1861              0.2580        
  RMS dev v=0 [a0 u^1/2]        0.2168              0.2144              0.2075        
  Char temp [K]               1843.1151           1883.4454           2010.8730       
  ----------------------------------------------------------------------------------
      1   C                0.07  0.04  0.04   -0.06 -0.02 -0.02    0.00  0.03  0.04   
      2   O                0.02  0.04  0.04    0.05 -0.04 -0.04    0.02  0.00  0.00   
      3   C                0.04 -0.08 -0.09   -0.05  0.01  0.01   -0.05  0.02  0.02   
      4   C               -0.04  0.07  0.07    0.02 -0.02 -0.02    0.02  0.02  0.02   
      5   H                0.56  0.13  0.12   -0.14 -0.03 -0.03    0.72  0.09  0.07   
      6   O                0.03 -0.01 -0.01    0.08 -0.03 -0.03    0.00  0.00  0.00   
      7   C               -0.14  0.10  0.11    0.04 -0.04 -0.05   -0.05 -0.05 -0.05   
      8   C               -0.13 -0.14 -0.14    0.05  0.05  0.05    0.07 -0.04 -0.05   
      9   C               -0.03 -0.03 -0.03    0.03  0.03  0.03   -0.01  0.02  0.02   
     10   H                0.63  0.01 -0.00   -0.13  0.02  0.03   -0.66 -0.03 -0.01   
     11   C               -0.01 -0.03 -0.03   -0.03  0.05  0.06   -0.02 -0.01 -0.01   
     12   H                0.08  0.04  0.06    0.15  0.17  0.21    0.01  0.00  0.02   
     13   H                0.08  0.06  0.05    0.15  0.20  0.18    0.01  0.02  0.01   
     14   C               -0.03 -0.06 -0.06   -0.08 -0.13 -0.13   -0.00 -0.00 -0.00   
     15   O               -0.02  0.06  0.07   -0.07  0.13  0.15    0.01 -0.00 -0.00   
     16   H                0.11 -0.17 -0.19    0.30 -0.51 -0.55   -0.02  0.04  0.05   
     17   CL               0.02  0.01  0.01   -0.01 -0.00 -0.00   -0.00  0.00  0.00   
     18   CL              -0.01  0.00  0.00    0.00 -0.00 -0.00    0.00 -0.00 -0.00   
     19   CL               0.02 -0.01 -0.01   -0.01  0.00  0.00    0.00  0.00  0.00   

  Vibration                       43                  44                  45          
  Freq [cm^-1]                1400.8903           1434.5498           1457.9516       
  Irrep                           A                   A                   A           
  Reduced mass [u]              1.0804              4.9240              1.6763        
  Force const [mDyne/A]         1.2493              5.9703              2.0994        
  Turning point v=0 [a0]        0.2820              0.1306              0.2220        
  RMS dev v=0 [a0 u^1/2]        0.2073              0.2049              0.2032        
  Char temp [K]               2015.5662           2063.9947           2097.6646       
  ----------------------------------------------------------------------------------
      1   C                0.00  0.00 -0.00    0.23  0.13  0.13    0.02  0.01  0.01   
      2   O                0.00 -0.03  0.03   -0.13 -0.16 -0.17    0.01 -0.01 -0.01   
      3   C                0.00 -0.00  0.00    0.15  0.13  0.13    0.00  0.01  0.01   
      4   C                0.00  0.00 -0.00    0.06 -0.03 -0.03    0.01 -0.01 -0.01   
      5   H               -0.00 -0.03  0.03   -0.26 -0.06 -0.06   -0.12 -0.02 -0.02   
      6   O                0.00 -0.01  0.01    0.01 -0.00 -0.00   -0.02  0.04  0.04   
      7   C                0.00  0.00  0.00   -0.05  0.08  0.08    0.01  0.00  0.00   
      8   C               -0.00  0.00  0.00   -0.18 -0.03 -0.03   -0.02  0.01  0.01   
      9   C                0.00  0.00 -0.00    0.02 -0.14 -0.15    0.01 -0.02 -0.02   
     10   H                0.00 -0.00  0.00   -0.66 -0.23 -0.22   -0.02 -0.02 -0.02   
     11   C               -0.00  0.02 -0.02   -0.00  0.10  0.10   -0.03 -0.03 -0.03   
     12   H               -0.33 -0.46 -0.42   -0.01  0.04  0.06    0.27  0.17  0.22   
     13   H                0.33  0.40  0.48   -0.02  0.05  0.04    0.27  0.22  0.17   
     14   C               -0.00  0.04 -0.04    0.02  0.01  0.01   -0.09 -0.12 -0.13   
     15   O                0.00 -0.00  0.00   -0.02  0.00  0.00    0.08  0.02  0.02   
     16   H                0.00  0.00 -0.00    0.07 -0.15 -0.16   -0.21  0.52  0.56   
     17   CL               0.00 -0.00  0.00    0.02  0.01  0.01    0.00 -0.00 -0.00   
     18   CL              -0.00  0.00  0.00   -0.02  0.00  0.00   -0.00 -0.00 -0.00   
     19   CL              -0.00  0.00 -0.00    0.01 -0.01 -0.01   -0.00 -0.00 -0.00   

  Vibration                       46                  47                  48          
  Freq [cm^-1]                1505.9556           1611.4856           1644.3598       
  Irrep                           A                   A                   A           
  Reduced mass [u]              7.6679              1.8881              1.1840        
  Force const [mDyne/A]        10.2460              2.8888              1.8862        
  Turning point v=0 [a0]        0.1021              0.1989              0.2487        
  RMS dev v=0 [a0 u^1/2]        0.1999              0.1933              0.1913        
  Char temp [K]               2166.7315           2318.5654           2365.8640       
  ----------------------------------------------------------------------------------
      1   C               -0.20 -0.08 -0.08    0.01 -0.02 -0.02   -0.02  0.01  0.01   
      2   O               -0.17 -0.07 -0.06   -0.03 -0.00 -0.00    0.01  0.00  0.00   
      3   C                0.44 -0.00 -0.02   -0.00  0.01  0.02   -0.02 -0.02 -0.02   
      4   C                0.11  0.15  0.16   -0.03 -0.01 -0.01    0.04  0.00  0.00   
      5   H               -0.56  0.12  0.14    0.16  0.01  0.00   -0.13 -0.01 -0.01   
      6   O               -0.01  0.01  0.01    0.00  0.02  0.02    0.00  0.00  0.00   
      7   C               -0.35 -0.07 -0.06    0.02  0.01  0.00   -0.02  0.01  0.02   
      8   C                0.26 -0.08 -0.09    0.01 -0.00 -0.00   -0.01 -0.02 -0.02   
      9   C               -0.04  0.10  0.11   -0.03  0.00  0.01    0.03  0.00  0.00   
     10   H               -0.06  0.12  0.13    0.08  0.01  0.01   -0.11 -0.01 -0.00   
     11   C                0.02  0.03  0.03    0.13  0.11  0.11    0.08 -0.02 -0.02   
     12   H                0.09 -0.00  0.04   -0.30 -0.43 -0.38   -0.47  0.50 -0.09   
     13   H                0.09  0.04 -0.00   -0.30 -0.37 -0.44   -0.45 -0.13  0.50   
     14   C               -0.01 -0.02 -0.02   -0.08 -0.11 -0.11   -0.02 -0.02 -0.02   
     15   O                0.01  0.01  0.01    0.02  0.03  0.03    0.01  0.01  0.01   
     16   H               -0.01  0.05  0.05   -0.04  0.13  0.14   -0.01  0.03  0.04   
     17   CL              -0.01  0.00  0.00   -0.00 -0.00 -0.00    0.00  0.00  0.00   
     18   CL               0.01  0.00  0.00   -0.00  0.00  0.00    0.00 -0.00 -0.00   
     19   CL               0.02 -0.00 -0.00   -0.00  0.00  0.00    0.00 -0.00 -0.00   

  Vibration                       49                  50                  51          
  Freq [cm^-1]                1668.6382           1751.6609           1791.1046       
  Irrep                           A                   A                   A           
  Reduced mass [u]              2.5381             10.0451              6.1781        
  Force const [mDyne/A]         4.1638             18.1596             11.6773        
  Turning point v=0 [a0]        0.1686              0.0827              0.1043        
  RMS dev v=0 [a0 u^1/2]        0.1899              0.1854              0.1833        
  Char temp [K]               2400.7953           2520.2462           2576.9968       
  ----------------------------------------------------------------------------------
      1   C               -0.10  0.05  0.05    0.00 -0.25 -0.27    0.23  0.11  0.10   
      2   O                0.03  0.04  0.04    0.02 -0.03 -0.03    0.03  0.01  0.01   
      3   C               -0.11 -0.11 -0.11   -0.20  0.30  0.32   -0.26 -0.04 -0.03   
      4   C                0.13  0.01  0.01    0.12 -0.13 -0.15    0.35  0.04  0.03   
      5   H               -0.55 -0.06 -0.04   -0.16 -0.18 -0.19   -0.53 -0.05 -0.03   
      6   O               -0.00  0.00  0.00    0.01 -0.00 -0.00    0.00 -0.00 -0.00   
      7   C               -0.04  0.07  0.07   -0.00  0.28  0.30   -0.18 -0.09 -0.09   
      8   C               -0.07 -0.07 -0.07    0.16 -0.28 -0.30    0.16  0.02  0.02   
      9   C                0.18  0.02  0.02   -0.09  0.12  0.13   -0.34 -0.05 -0.05   
     10   H               -0.52 -0.03 -0.02    0.08  0.15  0.16    0.47  0.01 -0.01   
     11   C               -0.00  0.02  0.03   -0.04 -0.02 -0.01    0.00  0.02  0.02   
     12   H                0.15 -0.34 -0.06    0.07  0.07  0.08    0.01 -0.11 -0.03   
     13   H                0.14 -0.03 -0.35    0.07  0.08  0.07    0.01 -0.02 -0.11   
     14   C               -0.00 -0.01 -0.01    0.00  0.01  0.01   -0.01  0.00  0.00   
     15   O               -0.00  0.00  0.00   -0.00 -0.00 -0.00   -0.00 -0.00 -0.00   
     16   H               -0.00  0.00  0.00    0.00 -0.01 -0.01   -0.00  0.00  0.00   
     17   CL               0.00  0.00  0.00    0.00  0.00  0.00   -0.00 -0.00 -0.00   
     18   CL               0.01 -0.00 -0.00   -0.00  0.00  0.00   -0.00 -0.00 -0.00   
     19   CL               0.00 -0.00 -0.00    0.00 -0.00 -0.00    0.00  0.00  0.00   

  Vibration                       52                  53                  54          
  Freq [cm^-1]                2078.9609           3225.2167           3272.5361       
  Irrep                           A                   A                   A           
  Reduced mass [u]             10.8360              1.0574              1.1072        
  Force const [mDyne/A]        27.5937              6.4802              6.9863        
  Turning point v=0 [a0]        0.0731              0.1879              0.1823        
  RMS dev v=0 [a0 u^1/2]        0.1702              0.1366              0.1356        
  Char temp [K]               2991.1574           4640.3616           4708.4437       
  ----------------------------------------------------------------------------------
      1   C                0.01 -0.00 -0.00   -0.00 -0.00 -0.00    0.00  0.00 -0.00   
      2   O                0.02  0.01  0.01   -0.00 -0.00 -0.00    0.00 -0.00  0.00   
      3   C               -0.02  0.00  0.00    0.00  0.00  0.00    0.00 -0.00  0.00   
      4   C                0.01 -0.00 -0.00   -0.00  0.00  0.00    0.00 -0.00  0.00   
      5   H               -0.01 -0.00 -0.00    0.00 -0.02 -0.02    0.00 -0.00  0.00   
      6   O               -0.40  0.16  0.19   -0.00  0.00  0.00   -0.00  0.00 -0.00   
      7   C               -0.00  0.00  0.00   -0.00  0.00  0.00   -0.00  0.00 -0.00   
      8   C                0.00 -0.00 -0.00   -0.00 -0.00 -0.00   -0.00  0.00 -0.00   
      9   C               -0.01  0.00  0.00    0.00 -0.00 -0.00   -0.00 -0.00 -0.00   
     10   H                0.01  0.00  0.00   -0.00  0.00  0.00   -0.00  0.00  0.00   
     11   C               -0.07 -0.01 -0.01    0.06 -0.02 -0.03   -0.00  0.07 -0.07   
     12   H               -0.10  0.02 -0.01   -0.31 -0.26  0.58   -0.33 -0.25  0.57   
     13   H               -0.10 -0.02  0.02   -0.34  0.58 -0.22    0.35 -0.57  0.21   
     14   C                0.67 -0.24 -0.27   -0.00 -0.00 -0.00   -0.00  0.00 -0.00   
     15   O               -0.05  0.03  0.03    0.00  0.00  0.00    0.00 -0.00  0.00   
     16   H                0.13 -0.27 -0.29   -0.00  0.00  0.00    0.00 -0.00  0.00   
     17   CL               0.00  0.00  0.00   -0.00 -0.00 -0.00   -0.00 -0.00  0.00   
     18   CL              -0.00  0.00  0.00    0.00  0.00  0.00    0.00 -0.00  0.00   
     19   CL               0.00 -0.00  0.00   -0.00  0.00  0.00   -0.00 -0.00  0.00   

  Vibration                       55                  56                  57          
  Freq [cm^-1]                3420.4491           3430.7454           4053.6708       
  Irrep                           A                   A                   A           
  Reduced mass [u]              1.0939              1.0922              1.0653        
  Force const [mDyne/A]         7.5405              7.5739             10.3140        
  Turning point v=0 [a0]        0.1794              0.1793              0.1670        
  RMS dev v=0 [a0 u^1/2]        0.1327              0.1325              0.1219        
  Char temp [K]               4921.2572           4936.0713           5832.3208       
  ----------------------------------------------------------------------------------
      1   C                0.00  0.00  0.00   -0.00  0.00  0.00    0.00  0.00  0.00   
      2   O               -0.00 -0.00 -0.00    0.00 -0.00 -0.00    0.00  0.00  0.00   
      3   C                0.00  0.00  0.00   -0.00  0.00  0.00   -0.00 -0.00 -0.00   
      4   C                0.00 -0.00 -0.00    0.01 -0.06 -0.06    0.00 -0.00 -0.00   
      5   H               -0.01  0.03  0.03   -0.12  0.68  0.72   -0.00  0.00  0.00   
      6   O               -0.00 -0.00 -0.00   -0.00  0.00  0.00   -0.00  0.00  0.00   
      7   C                0.00  0.00  0.00    0.00  0.00  0.00   -0.00  0.00  0.00   
      8   C               -0.00  0.00  0.00    0.00  0.00  0.00   -0.00 -0.00 -0.00   
      9   C                0.01 -0.06 -0.06   -0.00  0.00  0.00   -0.00  0.00  0.00   
     10   H               -0.10  0.68  0.72    0.00 -0.03 -0.03    0.00  0.00  0.00   
     11   C               -0.00  0.00  0.00    0.00 -0.00 -0.00    0.00 -0.00 -0.00   
     12   H                0.00  0.00 -0.00   -0.01 -0.01  0.02   -0.00 -0.00  0.00   
     13   H               -0.00 -0.00 -0.00   -0.01  0.01 -0.01   -0.00  0.00  0.00   
     14   C                0.00  0.00  0.00    0.00  0.00  0.00   -0.00 -0.00 -0.00   
     15   O                0.00 -0.00  0.00    0.00 -0.00 -0.00   -0.06 -0.02 -0.02   
     16   H               -0.00 -0.00  0.00   -0.00 -0.00  0.00    0.93  0.26  0.25   
     17   CL               0.00  0.00  0.00   -0.00 -0.00 -0.00    0.00  0.00  0.00   
     18   CL              -0.00  0.00  0.00    0.00 -0.00 -0.00   -0.00  0.00  0.00   
     19   CL               0.00 -0.00 -0.00   -0.00  0.00  0.00    0.00 -0.00 -0.00   

  ==> Thermochemistry Components <==

  Entropy, S
    Electronic S            0.000 [cal/(mol K)]        0.000 [J/(mol K)]       0.00000000 [mEh/K] (multiplicity = 1)
    Translational S        42.496 [cal/(mol K)]      177.803 [J/(mol K)]       0.06772143 [mEh/K] (mol. weight = 253.9304 [u], P = 101325.00 [Pa])
    Rotational S           33.438 [cal/(mol K)]      139.903 [J/(mol K)]       0.05328632 [mEh/K] (symmetry no. = 1)
    Vibrational S          41.309 [cal/(mol K)]      172.837 [J/(mol K)]       0.06583026 [mEh/K]
  Total S                 117.243 [cal/(mol K)]      490.543 [J/(mol K)]       0.18683800 [mEh/K]
  Correction S              0.000 [cal/(mol K)]        0.000 [J/(mol K)]       0.00000000 [mEh/K]

  Constant volume heat capacity, Cv
    Electronic Cv           0.000 [cal/(mol K)]        0.000 [J/(mol K)]       0.00000000 [mEh/K]
    Translational Cv        2.981 [cal/(mol K)]       12.472 [J/(mol K)]       0.00475022 [mEh/K]
    Rotational Cv           2.981 [cal/(mol K)]       12.472 [J/(mol K)]       0.00475022 [mEh/K]
    Vibrational Cv         38.274 [cal/(mol K)]      160.137 [J/(mol K)]       0.06099288 [mEh/K]
  Total Cv                 44.235 [cal/(mol K)]      185.080 [J/(mol K)]       0.07049332 [mEh/K]
  Correction Cv             0.000 [cal/(mol K)]        0.000 [J/(mol K)]       0.00000000 [mEh/K]

  Constant pressure heat capacity, Cp
    Electronic Cp           0.000 [cal/(mol K)]        0.000 [J/(mol K)]       0.00000000 [mEh/K]
    Translational Cp        4.968 [cal/(mol K)]       20.786 [J/(mol K)]       0.00791704 [mEh/K]
    Rotational Cp           2.981 [cal/(mol K)]       12.472 [J/(mol K)]       0.00475022 [mEh/K]
    Vibrational Cp         38.274 [cal/(mol K)]      160.137 [J/(mol K)]       0.06099288 [mEh/K]
  Total Cp                 46.222 [cal/(mol K)]      193.395 [J/(mol K)]       0.07366014 [mEh/K]
  Correction Cp             0.000 [cal/(mol K)]        0.000 [J/(mol K)]       0.00000000 [mEh/K]

  ==> Thermochemistry Energy Analysis <==

  Raw electronic energy, E0
  Total E0, Electronic energy at well bottom at 0 [K]                -1908.87923076 [Eh]

  Zero-point energy, ZPE_vib = Sum_i nu_i / 2
    Electronic ZPE          0.000 [kcal/mol]        0.000 [kJ/mol]       0.00000000 [Eh]
    Translational ZPE       0.000 [kcal/mol]        0.000 [kJ/mol]       0.00000000 [Eh]
    Rotational ZPE          0.000 [kcal/mol]        0.000 [kJ/mol]       0.00000000 [Eh]
    Vibrational ZPE        81.183 [kcal/mol]      339.669 [kJ/mol]       0.12937311 [Eh]       28394.112 [cm^-1]
  Correction ZPE           81.183 [kcal/mol]      339.669 [kJ/mol]       0.12937311 [Eh]       28394.112 [cm^-1]
  Total ZPE, Electronic energy at 0 [K]                              -1908.74985765 [Eh]

  Thermal Energy, E (includes ZPE)
    Electronic E            0.000 [kcal/mol]        0.000 [kJ/mol]       0.00000000 [Eh]
    Translational E         0.889 [kcal/mol]        3.718 [kJ/mol]       0.00141628 [Eh]
    Rotational E            0.889 [kcal/mol]        3.718 [kJ/mol]       0.00141628 [Eh]
    Vibrational E          87.323 [kcal/mol]      365.359 [kJ/mol]       0.13915791 [Eh]
  Correction E             89.100 [kcal/mol]      372.796 [kJ/mol]       0.14199046 [Eh]
  Total E, Electronic energy at  298.15 [K]                          -1908.73724030 [Eh]

  Enthalpy, H_trans = E_trans + k_B * T
    Electronic H            0.000 [kcal/mol]        0.000 [kJ/mol]       0.00000000 [Eh]
    Translational H         1.481 [kcal/mol]        6.197 [kJ/mol]       0.00236046 [Eh]
    Rotational H            0.889 [kcal/mol]        3.718 [kJ/mol]       0.00141628 [Eh]
    Vibrational H          87.323 [kcal/mol]      365.359 [kJ/mol]       0.13915791 [Eh]
  Correction H             89.693 [kcal/mol]      375.275 [kJ/mol]       0.14293465 [Eh]
  Total H, Enthalpy at  298.15 [K]                                   -1908.73629611 [Eh]

  Gibbs free energy, G = H - T * S
    Electronic G            0.000 [kcal/mol]        0.000 [kJ/mol]       0.00000000 [Eh]
    Translational G       -11.189 [kcal/mol]      -46.814 [kJ/mol]      -0.01783068 [Eh]
    Rotational G           -9.081 [kcal/mol]      -37.994 [kJ/mol]      -0.01447104 [Eh]
    Vibrational G          75.007 [kcal/mol]      313.828 [kJ/mol]       0.11953062 [Eh]
  Correction G             54.737 [kcal/mol]      229.019 [kJ/mol]       0.08722890 [Eh]
  Total G, Free enthalpy at  298.15 [K]                              -1908.79200186 [Eh]

    Psi4 stopped on: Thursday, 27 September 2018 01:13PM
    Psi4 wall time for execution: 0:21:09.86

*** Psi4 exiting successfully. Buy a developer a beer!
