
    -----------------------------------------------------------------------
          Psi4: An Open-Source Ab Initio Electronic Structure Package
                               Psi4 1.1a2.dev170 

                         Git: Rev {master} e4fcd91 dirty


    J. M. Turney, A. C. Simmonett, R. M. Parrish, E. G. Hohenstein,
    F. A. Evangelista, J. T. Fermann, B. J. Mintz, L. A. Burns, J. J. Wilke,
    M. L. Abrams, N. J. Russ, M. L. Leininger, C. L. Janssen, E. T. Seidl,
    W. D. Allen, H. F. Schaefer, R. A. King, E. F. Valeev, C. D. Sherrill,
    and T. D. Crawford, WIREs Comput. Mol. Sci. 2, 556-565 (2012)
    (doi: 10.1002/wcms.93)


                         Additional Contributions by
    A. E. DePrince, U. Bozkaya, A. Yu. Sokolov, D. G. A. Smith, R. Di Remigio,
    R. M. Richard, J. F. Gonthier, H. R. McAlexander, M. Saitow, and
    B. P. Pritchard
    -----------------------------------------------------------------------


    Psi4 started on: Thursday, 27 September 2018 10:40AM

    Process ID:  11462
    PSIDATADIR: /usr/local/software/miniconda2/envs/p4env/share/psi4
    Memory:     500.0 MiB
    Threads:    8
    
  ==> Input File <==

--------------------------------------------------------------------------
memory 20 Gb

molecule conf5 {
0 1
    C           -0.330632550915    -1.209334298667     0.217885496216
    O           -1.056636441306     0.760546463220     1.364365909300
    C           -0.219717454663     0.145944494074     0.497052623826
    C            0.798934607715     0.872499013931    -0.090612258447
    H            0.895068659389     1.914813772906     0.144055554989
    O           -4.157149618270     2.343675765265     1.687937872479
    C            1.697088564915     0.269200160970    -0.953125241988
    C            1.577699429214    -1.083945032066    -1.232254319456
    C            0.563513453265    -1.817328024083    -0.640410323060
    H            0.474870507029    -2.864759802349    -0.850020518413
    C           -2.228642866091     1.301700563945     0.816406639718
    H           -2.870510165823     0.531887749836     0.410872305539
    H           -1.994998653388     2.005628268881     0.023445465731
    C           -3.020151778058     2.051123697410     1.863382884947
    O           -2.332849003678     2.382643679741     2.937857165284
    H           -2.912376007900     2.862683121754     3.522427162648
    CL           2.667276899896    -1.900932169333    -2.301435107824
    CL          -1.579931361629    -2.158884720943     0.955001967131
    CL           2.947924819654     1.240011619047    -1.651327103490
}
set globals {
  reference rhf
  g_convergence gau_tight
  basis 6-31G(d)
}
optimize('scf')
--------------------------------------------------------------------------

  Memory set to  20.000 GiB by Python script.
gradient() will perform analytic gradient computation.

*** tstart() called on dakota
*** at Thu Sep 27 10:40:22 2018


         ---------------------------------------------------------
                                   SCF
            by Justin Turney, Rob Parrish, and Andy Simmonett
                              RHF Reference
                        8 Threads,  20000 MiB Core
         ---------------------------------------------------------

  ==> Geometry <==

    Molecular point group: c1
    Full point group: C1

    Geometry (in Angstrom), charge = 0, multiplicity = 1:

       Center              X                  Y                   Z               Mass       
    ------------   -----------------  -----------------  -----------------  -----------------
           C         -0.330632550915    -1.209334298667     0.217885496216    12.000000000000
           O         -1.056636441306     0.760546463220     1.364365909300    15.994914619560
           C         -0.219717454663     0.145944494074     0.497052623826    12.000000000000
           C          0.798934607715     0.872499013931    -0.090612258447    12.000000000000
           H          0.895068659389     1.914813772906     0.144055554989     1.007825032070
           O         -4.157149618270     2.343675765265     1.687937872479    15.994914619560
           C          1.697088564915     0.269200160970    -0.953125241988    12.000000000000
           C          1.577699429214    -1.083945032066    -1.232254319456    12.000000000000
           C          0.563513453265    -1.817328024083    -0.640410323060    12.000000000000
           H          0.474870507029    -2.864759802349    -0.850020518413     1.007825032070
           C         -2.228642866091     1.301700563945     0.816406639718    12.000000000000
           H         -2.870510165823     0.531887749836     0.410872305539     1.007825032070
           H         -1.994998653388     2.005628268881     0.023445465731     1.007825032070
           C         -3.020151778058     2.051123697410     1.863382884947    12.000000000000
           O         -2.332849003678     2.382643679741     2.937857165284    15.994914619560
           H         -2.912376007900     2.862683121754     3.522427162648     1.007825032070
          CL          2.667276899896    -1.900932169333    -2.301435107824    34.968852682000
          CL         -1.579931361629    -2.158884720943     0.955001967131    34.968852682000
          CL          2.947924819654     1.240011619047    -1.651327103490    34.968852682000

  Running in c1 symmetry.

  Rotational constants: A =      0.02710  B =      0.00820  C =      0.00656 [cm^-1]
  Rotational constants: A =    812.41512  B =    245.78044  C =    196.57402 [MHz]
  Nuclear repulsion = 1167.280781177724521

  Charge       = 0
  Multiplicity = 1
  Electrons    = 128
  Nalpha       = 64
  Nbeta        = 64

  ==> Algorithm <==

  SCF Algorithm Type is DF.
  DIIS enabled.
  MOM disabled.
  Fractional occupation disabled.
  Guess Type is SAD.
  Energy threshold   = 1.00e-08
  Density threshold  = 1.00e-08
  Integral threshold = 0.00e+00

  ==> Primary Basis <==

  Basis Set: file /usr/local/software/miniconda2/envs/p4env/share/psi4/basis/6-31g_d_.gbs
    Number of shells: 100
    Number of basis function: 232
    Number of Cartesian functions: 232
    Spherical Harmonics?: false
    Max angular momentum: 2

  ==> Pre-Iterations <==

   -------------------------------------------------------
    Irrep   Nso     Nmo     Nalpha   Nbeta   Ndocc  Nsocc
   -------------------------------------------------------
     A        232     232       0       0       0       0
   -------------------------------------------------------
    Total     232     232      64      64      64       0
   -------------------------------------------------------

  ==> Integral Setup <==

  ==> DFJK: Density-Fitted J/K Matrices <==

    J tasked:                  Yes
    K tasked:                  Yes
    wK tasked:                  No
    OpenMP threads:              8
    Integrals threads:           8
    Memory (MB):             14305
    Algorithm:                Core
    Integral Cache:           NONE
    Schwarz Cutoff:          1E-12
    Fitting Condition:       1E-12

   => Auxiliary Basis Set <=

  Basis Set: file /usr/local/software/miniconda2/envs/p4env/share/psi4/basis/cc-pvdz-jkfit.gbs
    Number of shells: 417
    Number of basis function: 1406
    Number of Cartesian functions: 1406
    Spherical Harmonics?: false
    Max angular momentum: 3

  Minimum eigenvalue in the overlap matrix is 3.6821778026E-04.
  Using Symmetric Orthogonalization.

  SCF Guess: Superposition of Atomic Densities via on-the-fly atomic UHF.

  ==> Iterations <==

                           Total Energy        Delta E     RMS |[F,P]|

   @DF-RHF iter   0: -1915.42653847091651   -1.91543e+03   2.89081e-02 
   @DF-RHF iter   1: -1908.48617919216554    6.94036e+00   3.23271e-03 
   @DF-RHF iter   2: -1908.78537857955644   -2.99199e-01   1.73540e-03 DIIS
   @DF-RHF iter   3: -1908.86314414547610   -7.77656e-02   4.79714e-04 DIIS
   @DF-RHF iter   4: -1908.87651847975940   -1.33743e-02   1.61347e-04 DIIS
   @DF-RHF iter   5: -1908.87801984072166   -1.50136e-03   6.54964e-05 DIIS
   @DF-RHF iter   6: -1908.87832535799407   -3.05517e-04   2.76634e-05 DIIS
   @DF-RHF iter   7: -1908.87837854280201   -5.31848e-05   8.55399e-06 DIIS
   @DF-RHF iter   8: -1908.87838549380740   -6.95101e-06   4.18644e-06 DIIS
   @DF-RHF iter   9: -1908.87838705182457   -1.55802e-06   1.72781e-06 DIIS
   @DF-RHF iter  10: -1908.87838738291293   -3.31088e-07   6.41571e-07 DIIS
   @DF-RHF iter  11: -1908.87838741939890   -3.64860e-08   2.47409e-07 DIIS
   @DF-RHF iter  12: -1908.87838742380904   -4.41014e-09   9.04190e-08 DIIS
   @DF-RHF iter  13: -1908.87838742429608   -4.87034e-10   3.33961e-08 DIIS
   @DF-RHF iter  14: -1908.87838742438225   -8.61746e-11   1.28311e-08 DIIS
   @DF-RHF iter  15: -1908.87838742439681   -1.45519e-11   4.50745e-09 DIIS

  ==> Post-Iterations <==

    Orbital Energies (a.u.)
    -----------------------

    Doubly Occupied:                                                      

       1A   -104.849875     2A   -104.849069     3A   -104.847854  
       4A    -20.631832     5A    -20.616462     6A    -20.568001  
       7A    -11.403179     8A    -11.339266     9A    -11.338485  
      10A    -11.335111    11A    -11.330160    12A    -11.323026  
      13A    -11.285265    14A    -11.277524    15A    -10.582911  
      16A    -10.582337    17A    -10.581076    18A     -8.052361  
      19A     -8.051781    20A     -8.050522    21A     -8.048894  
      22A     -8.048834    23A     -8.048246    24A     -8.048224  
      25A     -8.046981    26A     -8.046977    27A     -1.498135  
      28A     -1.449737    29A     -1.386531    30A     -1.245994  
      31A     -1.188350    32A     -1.155952    33A     -1.115872  
      34A     -1.056863    35A     -1.022895    36A     -0.981729  
      37A     -0.884805    38A     -0.858332    39A     -0.830898  
      40A     -0.746380    41A     -0.740947    42A     -0.725104  
      43A     -0.708266    44A     -0.684470    45A     -0.675867  
      46A     -0.650678    47A     -0.625456    48A     -0.622396  
      49A     -0.610492    50A     -0.592115    51A     -0.577590  
      52A     -0.567773    53A     -0.559085    54A     -0.530308  
      55A     -0.502607    56A     -0.501998    57A     -0.487882  
      58A     -0.478570    59A     -0.471507    60A     -0.466471  
      61A     -0.460694    62A     -0.458600    63A     -0.368594  
      64A     -0.348124  

    Virtual:                                                              

      65A      0.094393    66A      0.103624    67A      0.147321  
      68A      0.174745    69A      0.202827    70A      0.215627  
      71A      0.233481    72A      0.247175    73A      0.281239  
      74A      0.291692    75A      0.306053    76A      0.316801  
      77A      0.330992    78A      0.381678    79A      0.416947  
      80A      0.428563    81A      0.437308    82A      0.466478  
      83A      0.471163    84A      0.478056    85A      0.516106  
      86A      0.527623    87A      0.544954    88A      0.578057  
      89A      0.584277    90A      0.596381    91A      0.601150  
      92A      0.618724    93A      0.622577    94A      0.637758  
      95A      0.651588    96A      0.658570    97A      0.671269  
      98A      0.683710    99A      0.701574   100A      0.718621  
     101A      0.738554   102A      0.763601   103A      0.767288  
     104A      0.783591   105A      0.791947   106A      0.806638  
     107A      0.812022   108A      0.847662   109A      0.852892  
     110A      0.873130   111A      0.888722   112A      0.924153  
     113A      0.938252   114A      0.944250   115A      0.960621  
     116A      0.967809   117A      0.983981   118A      1.008652  
     119A      1.024362   120A      1.041001   121A      1.051048  
     122A      1.057851   123A      1.071431   124A      1.090875  
     125A      1.108220   126A      1.110917   127A      1.116120  
     128A      1.124879   129A      1.129227   130A      1.132685  
     131A      1.136130   132A      1.141340   133A      1.169099  
     134A      1.180914   135A      1.195949   136A      1.201000  
     137A      1.216508   138A      1.227640   139A      1.249787  
     140A      1.255299   141A      1.283609   142A      1.290425  
     143A      1.300608   144A      1.324853   145A      1.334218  
     146A      1.345717   147A      1.364580   148A      1.390200  
     149A      1.414867   150A      1.426188   151A      1.434118  
     152A      1.450697   153A      1.494135   154A      1.559457  
     155A      1.571316   156A      1.595368   157A      1.627480  
     158A      1.652412   159A      1.661525   160A      1.678806  
     161A      1.682943   162A      1.715865   163A      1.750471  
     164A      1.774369   165A      1.783598   166A      1.793713  
     167A      1.821929   168A      1.862966   169A      1.908360  
     170A      1.966983   171A      2.013322   172A      2.028091  
     173A      2.052931   174A      2.059856   175A      2.067446  
     176A      2.097213   177A      2.104554   178A      2.159648  
     179A      2.183272   180A      2.206654   181A      2.219770  
     182A      2.237391   183A      2.261323   184A      2.323165  
     185A      2.340812   186A      2.350814   187A      2.384950  
     188A      2.403514   189A      2.414005   190A      2.420781  
     191A      2.456114   192A      2.475962   193A      2.533739  
     194A      2.544825   195A      2.581768   196A      2.595907  
     197A      2.636005   198A      2.706428   199A      2.729270  
     200A      2.770560   201A      2.834816   202A      2.882191  
     203A      2.930886   204A      2.969052   205A      3.002467  
     206A      3.020119   207A      3.053002   208A      3.068012  
     209A      3.089527   210A      3.116937   211A      3.177194  
     212A      3.192725   213A      3.248783   214A      3.323159  
     215A      3.456445   216A      3.481664   217A      3.542164  
     218A      3.709843   219A      4.259695   220A      4.424113  
     221A      4.460720   222A      4.483926   223A      4.517727  
     224A      4.579319   225A      4.630089   226A      4.655259  
     227A      4.721363   228A      4.744902   229A      4.797749  
     230A      4.875035   231A      4.924788   232A      5.151301  

    Final Occupation by Irrep:
              A 
    DOCC [    64 ]

  Energy converged.

  @DF-RHF Final Energy: -1908.87838742439681

   => Energetics <=

    Nuclear Repulsion Energy =           1167.2807811777245206
    One-Electron Energy =               -4952.2736991743977342
    Two-Electron Energy =                1876.1145305722761805
    DFT Exchange-Correlation Energy =       0.0000000000000000
    Empirical Dispersion Energy =           0.0000000000000000
    PCM Polarization Energy =               0.0000000000000000
    EFP Energy =                            0.0000000000000000
    Total Energy =                      -1908.8783874243968057

    Alert: EFP and PCM quantities not currently incorporated into SCF psivars.

Properties will be evaluated at   0.000000,   0.000000,   0.000000 Bohr

Properties computed using the SCF density matrix

  Nuclear Dipole Moment: (a.u.)
     X:    -9.7375      Y:     6.7797      Z:     5.8205

  Electronic Dipole Moment: (a.u.)
     X:     9.7182      Y:    -6.5094      Z:    -5.7065

  Dipole Moment: (a.u.)
     X:    -0.0193      Y:     0.2703      Z:     0.1141     Total:     0.2940

  Dipole Moment: (Debye)
     X:    -0.0490      Y:     0.6871      Z:     0.2899     Total:     0.7474


*** tstop() called on dakota at Thu Sep 27 10:40:50 2018
Module time:
	user time   =     108.91 seconds =       1.82 minutes
	system time =       2.41 seconds =       0.04 minutes
	total time  =         28 seconds =       0.47 minutes
Total time:
	user time   =     108.91 seconds =       1.82 minutes
	system time =       2.41 seconds =       0.04 minutes
	total time  =         28 seconds =       0.47 minutes

*** tstart() called on dakota
*** at Thu Sep 27 10:40:50 2018


         ------------------------------------------------------------
                                   SCF GRAD                          
                          Rob Parrish, Justin Turney,                
                       Andy Simmonett, and Alex Sokolov              
         ------------------------------------------------------------

  ==> Geometry <==

    Molecular point group: c1
    Full point group: C1

    Geometry (in Angstrom), charge = 0, multiplicity = 1:

       Center              X                  Y                   Z               Mass       
    ------------   -----------------  -----------------  -----------------  -----------------
           C         -0.330632550915    -1.209334298667     0.217885496216    12.000000000000
           O         -1.056636441306     0.760546463220     1.364365909300    15.994914619560
           C         -0.219717454663     0.145944494074     0.497052623826    12.000000000000
           C          0.798934607715     0.872499013931    -0.090612258447    12.000000000000
           H          0.895068659389     1.914813772906     0.144055554989     1.007825032070
           O         -4.157149618270     2.343675765265     1.687937872479    15.994914619560
           C          1.697088564915     0.269200160970    -0.953125241988    12.000000000000
           C          1.577699429214    -1.083945032066    -1.232254319456    12.000000000000
           C          0.563513453265    -1.817328024083    -0.640410323060    12.000000000000
           H          0.474870507029    -2.864759802349    -0.850020518413     1.007825032070
           C         -2.228642866091     1.301700563945     0.816406639718    12.000000000000
           H         -2.870510165823     0.531887749836     0.410872305539     1.007825032070
           H         -1.994998653388     2.005628268881     0.023445465731     1.007825032070
           C         -3.020151778058     2.051123697410     1.863382884947    12.000000000000
           O         -2.332849003678     2.382643679741     2.937857165284    15.994914619560
           H         -2.912376007900     2.862683121754     3.522427162648     1.007825032070
          CL          2.667276899896    -1.900932169333    -2.301435107824    34.968852682000
          CL         -1.579931361629    -2.158884720943     0.955001967131    34.968852682000
          CL          2.947924819654     1.240011619047    -1.651327103490    34.968852682000

  Nuclear repulsion = 1167.280781177724748

  ==> Basis Set <==

  Basis Set: file /usr/local/software/miniconda2/envs/p4env/share/psi4/basis/6-31g_d_.gbs
    Number of shells: 100
    Number of basis function: 232
    Number of Cartesian functions: 232
    Spherical Harmonics?: false
    Max angular momentum: 2

  ==> DFJKGrad: Density-Fitted SCF Gradients <==

    Gradient:                    1
    J tasked:                  Yes
    K tasked:                  Yes
    wK tasked:                  No
    OpenMP threads:              8
    Integrals threads:           8
    Memory (MB):             14305
    Schwarz Cutoff:          0E+00
    Fitting Condition:       1E-12

   => Auxiliary Basis Set <=

  Basis Set: file /usr/local/software/miniconda2/envs/p4env/share/psi4/basis/cc-pvdz-jkfit.gbs
    Number of shells: 417
    Number of basis function: 1406
    Number of Cartesian functions: 1406
    Spherical Harmonics?: false
    Max angular momentum: 3


  -Total Gradient:
     Atom            X                  Y                   Z
    ------   -----------------  -----------------  -----------------
       1       -0.000000185969     0.000000258312     0.000000038335
       2        0.000001108581     0.000002117010    -0.000000619536
       3        0.000000042528    -0.000000632501    -0.000000093796
       4       -0.000000630067    -0.000000085821     0.000000545693
       5       -0.000000091314    -0.000000137572    -0.000000019818
       6        0.000000492940     0.000002056069    -0.000001203519
       7       -0.000000200564    -0.000000178134     0.000000023058
       8        0.000000010103    -0.000000097667     0.000000054468
       9        0.000000293116    -0.000000051822    -0.000000214262
      10       -0.000000006211     0.000000153021     0.000000019967
      11        0.000000440885    -0.000000081010    -0.000000099564
      12        0.000000634557    -0.000001011827     0.000000871796
      13       -0.000001429422    -0.000000256398    -0.000000680579
      14       -0.000000122441    -0.000000310055     0.000000501527
      15       -0.000000395698    -0.000002055546     0.000001027045
      16       -0.000000077871     0.000000023584    -0.000000057483
      17        0.000000015697     0.000000112723    -0.000000034171
      18       -0.000000006117     0.000000224634     0.000000029592
      19        0.000000107241    -0.000000046920    -0.000000088595


*** tstop() called on dakota at Thu Sep 27 10:41:04 2018
Module time:
	user time   =      51.40 seconds =       0.86 minutes
	system time =       0.84 seconds =       0.01 minutes
	total time  =         14 seconds =       0.23 minutes
Total time:
	user time   =     160.31 seconds =       2.67 minutes
	system time =       3.25 seconds =       0.05 minutes
	total time  =         42 seconds =       0.70 minutes

			-----------------------------------------
			 OPTKING 2.0: for geometry optimizations 
			  - R.A. King,  Bethel University        
			-----------------------------------------

	Internal coordinates to be generated automatically.
	Detected frag 1 with atoms:  1 2 3 4 5 6 7 8 9 10 11 12 13 14 15 16 17 18 19
	---Fragment 1 Bond Connectivity---
	 1 : 3 9 18
	 2 : 3 11
	 3 : 1 2 4
	 4 : 3 5 7
	 5 : 4
	 6 : 14
	 7 : 4 8 19
	 8 : 7 9 17
	 9 : 1 8 10
	 10 : 9
	 11 : 2 12 13 14
	 12 : 11
	 13 : 11
	 14 : 6 11 15
	 15 : 14 16
	 16 : 15
	 17 : 8
	 18 : 1
	 19 : 7

	---Fragment 1 Geometry and Gradient---
	 C          -0.6248049718       -2.2853106276        0.4117439162
	 O          -1.9967534961        1.4372245268        2.5782779136
	 C          -0.4152058159        0.2757951244        0.9392933327
	 C           1.5097676067        1.6487841875       -0.1712323527
	 H           1.6914346364        3.6184736263        0.2722255469
	 O          -7.8558742720        4.4289053406        3.1897403083
	 C           3.2070326109        0.5087145792       -1.8011456777
	 C           2.9814198412       -2.0483592537       -2.3286231898
	 C           1.0648860989       -3.4342522591       -1.2102001233
	 H           0.8973752069       -5.4136114629       -1.6063059871
	 C          -4.2115246649        2.4598575729        1.5427849621
	 H          -5.4244780751        1.0051221806        0.7764361331
	 H          -3.7700010904        3.7900881526        0.0443055093
	 C          -5.7072597403        3.8760620528        3.5212833333
	 O          -4.4084457263        4.5025440270        5.5517454599
	 H          -5.5035930509        5.4096871053        6.6564226604
	 CL          5.0404228614       -3.5922411972       -4.3490820664
	 CL         -2.9856375822       -4.0797008751        1.8046921742
	 CL          5.5707705695        2.3432823616       -3.1205559814
	            -0.0000001860        0.0000002583        0.0000000383
	             0.0000011086        0.0000021170       -0.0000006195
	             0.0000000425       -0.0000006325       -0.0000000938
	            -0.0000006301       -0.0000000858        0.0000005457
	            -0.0000000913       -0.0000001376       -0.0000000198
	             0.0000004929        0.0000020561       -0.0000012035
	            -0.0000002006       -0.0000001781        0.0000000231
	             0.0000000101       -0.0000000977        0.0000000545
	             0.0000002931       -0.0000000518       -0.0000002143
	            -0.0000000062        0.0000001530        0.0000000200
	             0.0000004409       -0.0000000810       -0.0000000996
	             0.0000006346       -0.0000010118        0.0000008718
	            -0.0000014294       -0.0000002564       -0.0000006806
	            -0.0000001224       -0.0000003101        0.0000005015
	            -0.0000003957       -0.0000020555        0.0000010270
	            -0.0000000779        0.0000000236       -0.0000000575
	             0.0000000157        0.0000001127       -0.0000000342
	            -0.0000000061        0.0000002246        0.0000000296
	             0.0000001072       -0.0000000469       -0.0000000886

	Previous optimization step data not found.  Starting new optimization.

	---Fragment 1 Intrafragment Coordinates---
	 - Coordinate -           - BOHR/RAD -       - ANG/DEG -
	 R(1,3)           =         2.623262	       1.388170
	 R(1,9)           =         2.608798	       1.380516
	 R(1,18)          =         3.276228	       1.733705
	 R(2,3)           =         2.556654	       1.352923
	 R(2,11)          =         2.650139	       1.402393
	 R(3,4)           =         2.612257	       1.382347
	 R(4,5)           =         2.027149	       1.072721
	 R(4,7)           =         2.614782	       1.383683
	 R(6,14)          =         2.243234	       1.187069
	 R(7,8)           =         2.620641	       1.386784
	 R(7,19)          =         3.270128	       1.730477
	 R(8,9)           =         2.616232	       1.384450
	 R(8,17)          =         3.271898	       1.731414
	 R(9,10)          =         2.025543	       1.071871
	 R(11,12)         =         2.043233	       1.081232
	 R(11,13)         =         2.051803	       1.085768
	 R(11,14)         =         2.856101	       1.511384
	 R(14,15)         =         2.490416	       1.317872
	 R(15,16)         =         1.800713	       0.952896
	 B(1,3,2)         =         2.121173	     121.534253
	 B(1,3,4)         =         2.078905	     119.112505
	 B(1,9,8)         =         2.102441	     120.461018
	 B(1,9,10)        =         2.092533	     119.893295
	 B(2,3,4)         =         2.082441	     119.315081
	 B(2,11,12)       =         1.947581	     111.588198
	 B(2,11,13)       =         1.934457	     110.836212
	 B(2,11,14)       =         1.937278	     110.997869
	 B(3,1,9)         =         2.098158	     120.215616
	 B(3,1,18)        =         2.102259	     120.450591
	 B(3,2,11)        =         2.028386	     116.217977
	 B(3,4,5)         =         2.075715	     118.929715
	 B(3,4,7)         =         2.110822	     120.941189
	 B(4,7,8)         =         2.088651	     119.670900
	 B(4,7,19)        =         2.066998	     118.430263
	 B(5,4,7)         =         2.096524	     120.121986
	 B(6,14,11)       =         2.119320	     121.428092
	 B(6,14,15)       =         2.162808	     123.919745
	 B(7,8,9)         =         2.087366	     119.597261
	 B(7,8,17)        =         2.130024	     122.041389
	 B(8,7,19)        =         2.127533	     121.898639
	 B(8,9,10)        =         2.088209	     119.645588
	 B(9,1,18)        =         2.082708	     119.330385
	 B(9,8,17)        =         2.065787	     118.360868
	 B(11,14,15)      =         2.000280	     114.607575
	 B(12,11,13)      =         1.891691	     108.385937
	 B(12,11,14)      =         1.877549	     107.575606
	 B(13,11,14)      =         1.872488	     107.285655
	 B(14,15,16)      =         1.885689	     108.042008
	 D(1,3,2,11)      =        -1.571222	     -90.024398
	 D(1,3,4,5)       =        -3.118223	    -178.661043
	 D(1,3,4,7)       =         0.006458	       0.370018
	 D(1,9,8,7)       =         0.005774	       0.330816
	 D(1,9,8,17)      =        -3.140135	    -179.916468
	 D(2,3,1,9)       =        -3.106965	    -178.015997
	 D(2,3,1,18)      =         0.022829	       1.308014
	 D(2,3,4,5)       =        -0.015235	      -0.872893
	 D(2,3,4,7)       =         3.109447	     178.158168
	 D(2,11,14,6)     =        -2.865549	    -164.183870
	 D(2,11,14,15)    =         0.316843	      18.153777
	 D(3,1,9,8)       =        -0.001218	      -0.069782
	 D(3,1,9,10)      =         3.138371	     179.815394
	 D(3,2,11,12)     =         1.125645	      64.494711
	 D(3,2,11,13)     =        -0.984459	     -56.405343
	 D(3,2,11,14)     =        -3.063472	    -175.523996
	 D(3,4,7,8)       =        -0.001940	      -0.111130
	 D(3,4,7,19)      =        -3.140762	    -179.952389
	 D(4,3,1,9)       =        -0.004865	      -0.278769
	 D(4,3,1,18)      =         3.124929	     179.045241
	 D(4,3,2,11)      =         1.609942	      92.242855
	 D(4,7,8,9)       =        -0.004196	      -0.240402
	 D(4,7,8,17)      =        -3.141308	    -179.983692
	 D(5,4,7,8)       =         3.122541	     178.908442
	 D(5,4,7,19)      =        -0.016281	      -0.932816
	 D(6,14,11,12)    =        -0.730272	     -41.841495
	 D(6,14,11,13)    =         1.301789	      74.587010
	 D(6,14,15,16)    =         0.021423	       1.227429
	 D(7,8,9,10)      =        -3.133820	    -179.554644
	 D(8,9,1,18)      =        -3.131144	    -179.401347
	 D(9,8,7,19)      =         3.134527	     179.595169
	 D(10,9,1,18)     =         0.008444	       0.483829
	 D(10,9,8,17)     =         0.003457	       0.198072
	 D(11,14,15,16)   =         3.121061	     178.823613
	 D(12,11,14,15)   =         2.452120	     140.496152
	 D(13,11,14,15)   =        -1.799004	    -103.075343
	 D(17,8,7,19)     =        -0.002585	      -0.148121
	 R(11,18)         =         6.658620	       3.523590

	Current energy   :     -1908.8783874244

	Generating empirical Hessian (Schlegel '84) for each fragment.
	Taking RFO optimization step.
	Going to follow RFO solution 1.
	Using RFO vector 1.
	Norm of target step-size    0.00118
	Projected energy change by RFO approximation:        -0.0000000042

	Back-transformation to cartesian coordinates...
	Successfully converged to displaced geometry.

	--- Internal Coordinate Step in ANG or DEG, aJ/ANG or AJ/DEG ---
	 ---------------------------------------------------------------------------
	   Coordinate                Previous        Force       Change         New 
	   ----------                --------       ------       ------       ------
	    1 R(1,3)          =      1.388170     0.000002     0.000000     1.388171
	    2 R(1,9)          =      1.380516    -0.000002    -0.000000     1.380516
	    3 R(1,18)         =      1.733705     0.000000     0.000000     1.733705
	    4 R(2,3)          =      1.352923     0.000002     0.000000     1.352924
	    5 R(2,11)         =      1.402393     0.000002     0.000000     1.402393
	    6 R(3,4)          =      1.382347     0.000007     0.000001     1.382348
	    7 R(4,5)          =      1.072721     0.000001     0.000000     1.072721
	    8 R(4,7)          =      1.383683    -0.000001    -0.000000     1.383683
	    9 R(6,14)         =      1.187069    -0.000002    -0.000000     1.187068
	   10 R(7,8)          =      1.386784     0.000002     0.000000     1.386784
	   11 R(7,19)         =      1.730477    -0.000001    -0.000000     1.730477
	   12 R(8,9)          =      1.384450     0.000002     0.000000     1.384451
	   13 R(8,17)         =      1.731414     0.000000     0.000000     1.731414
	   14 R(9,10)         =      1.071871     0.000001     0.000000     1.071871
	   15 R(11,12)        =      1.081232    -0.000000    -0.000000     1.081232
	   16 R(11,13)        =      1.085768    -0.000000    -0.000000     1.085768
	   17 R(11,14)        =      1.511384    -0.000001    -0.000000     1.511384
	   18 R(14,15)        =      1.317872    -0.000000    -0.000000     1.317872
	   19 R(15,16)        =      0.952896    -0.000000    -0.000000     0.952896
	   20 B(1,3,2)        =    121.534253    -0.000000    -0.000033   121.534220
	   21 B(1,3,4)        =    119.112505    -0.000000    -0.000034   119.112472
	   22 B(1,9,8)        =    120.461018     0.000000     0.000014   120.461032
	   23 B(1,9,10)       =    119.893295    -0.000000    -0.000002   119.893292
	   24 B(2,3,4)        =    119.315081     0.000000     0.000059   119.315140
	   25 B(2,11,12)      =    111.588198    -0.000000    -0.000008   111.588190
	   26 B(2,11,13)      =    110.836212    -0.000000    -0.000013   110.836199
	   27 B(2,11,14)      =    110.997869     0.000000    -0.000002   110.997867
	   28 B(3,1,9)        =    120.215616     0.000000     0.000004   120.215620
	   29 B(3,1,18)       =    120.450591     0.000000     0.000049   120.450640
	   30 B(3,2,11)       =    116.217977     0.000000     0.000091   116.218068
	   31 B(3,4,5)        =    118.929715     0.000000     0.000013   118.929729
	   32 B(3,4,7)        =    120.941189     0.000000     0.000020   120.941209
	   33 B(4,7,8)        =    119.670900    -0.000000    -0.000022   119.670878
	   34 B(4,7,19)       =    118.430263    -0.000000    -0.000035   118.430228
	   35 B(5,4,7)        =    120.121986    -0.000000    -0.000035   120.121950
	   36 B(6,14,11)      =    121.428092     0.000000     0.000053   121.428145
	   37 B(6,14,15)      =    123.919745    -0.000000    -0.000055   123.919690
	   38 B(7,8,9)        =    119.597261     0.000000     0.000017   119.597278
	   39 B(7,8,17)       =    122.041389     0.000000     0.000030   122.041420
	   40 B(8,7,19)       =    121.898639     0.000000     0.000057   121.898696
	   41 B(8,9,10)       =    119.645588    -0.000000    -0.000012   119.645576
	   42 B(9,1,18)       =    119.330385    -0.000000    -0.000052   119.330333
	   43 B(9,8,17)       =    118.360868    -0.000000    -0.000047   118.360820
	   44 B(11,14,15)     =    114.607575    -0.000000    -0.000036   114.607539
	   45 B(12,11,13)     =    108.385937     0.000000     0.000047   108.385984
	   46 B(12,11,14)     =    107.575606     0.000000     0.000015   107.575621
	   47 B(13,11,14)     =    107.285655    -0.000000    -0.000038   107.285617
	   48 B(14,15,16)     =    108.042008     0.000000     0.000056   108.042064
	   49 D(1,3,2,11)     =    -90.024398     0.000000    -0.000175   -90.024573
	   50 D(1,3,4,5)      =   -178.661043     0.000000     0.000147  -178.660896
	   51 D(1,3,4,7)      =      0.370018    -0.000000     0.000035     0.370052
	   52 D(1,9,8,7)      =      0.330816    -0.000000     0.000006     0.330823
	   53 D(1,9,8,17)     =   -179.916468    -0.000000    -0.000116  -179.916585
	   54 D(2,3,1,9)      =   -178.015997     0.000000     0.000130  -178.015867
	   55 D(2,3,1,18)     =      1.308014     0.000000     0.000157     1.308171
	   56 D(2,3,4,5)      =     -0.872893    -0.000000    -0.000068    -0.872961
	   57 D(2,3,4,7)      =    178.158168    -0.000000    -0.000181   178.157987
	   58 D(2,11,14,6)    =   -164.183870     0.000000     0.026677  -164.157192
	   59 D(2,11,14,15)   =     18.153777     0.000000     0.027656    18.181433
	   60 D(3,1,9,8)      =     -0.069782     0.000000     0.000069    -0.069713
	   61 D(3,1,9,10)     =    179.815394     0.000000     0.000001   179.815395
	   62 D(3,2,11,12)    =     64.494711     0.000000     0.006482    64.501193
	   63 D(3,2,11,13)    =    -56.405343     0.000000     0.006436   -56.398907
	   64 D(3,2,11,14)    =   -175.523996     0.000000     0.006494  -175.517502
	   65 D(3,4,7,8)      =     -0.111130     0.000000     0.000039    -0.111091
	   66 D(3,4,7,19)     =   -179.952389     0.000000     0.000049  -179.952340
	   67 D(4,3,1,9)      =     -0.278769    -0.000000    -0.000089    -0.278858
	   68 D(4,3,1,18)     =    179.045241     0.000000    -0.000061   179.045180
	   69 D(4,3,2,11)     =     92.242855     0.000000     0.000046    92.242901
	   70 D(4,7,8,9)      =     -0.240402    -0.000000    -0.000060    -0.240462
	   71 D(4,7,8,17)     =   -179.983692     0.000000     0.000067  -179.983625
	   72 D(5,4,7,8)      =    178.908442    -0.000000    -0.000074   178.908368
	   73 D(5,4,7,19)     =     -0.932816    -0.000000    -0.000065    -0.932881
	   74 D(6,14,11,12)   =    -41.841495     0.000000     0.026676   -41.814819
	   75 D(6,14,11,13)   =     74.587010     0.000000     0.026719    74.613729
	   76 D(6,14,15,16)   =      1.227429     0.000000     0.000608     1.228037
	   77 D(7,8,9,10)     =   -179.554644     0.000000     0.000074  -179.554570
	   78 D(8,9,1,18)     =   -179.401347    -0.000000     0.000041  -179.401306
	   79 D(9,8,7,19)     =    179.595169    -0.000000    -0.000070   179.595100
	   80 D(10,9,1,18)    =      0.483829    -0.000000    -0.000027     0.483802
	   81 D(10,9,8,17)    =      0.198072    -0.000000    -0.000048     0.198023
	   82 D(11,14,15,16)  =    178.823613    -0.000000    -0.000395   178.823218
	   83 D(12,11,14,15)  =    140.496152     0.000000     0.027654   140.523807
	   84 D(13,11,14,15)  =   -103.075343     0.000000     0.027697  -103.047646
	   85 D(17,8,7,19)    =     -0.148121     0.000000     0.000057    -0.148063
	   86 R(11,18)        =      3.523590     0.000001     0.000003     3.523593
	 ---------------------------------------------------------------------------
	Successfully symmetrized geometry.

  ==> Convergence Check <==

  Measures of convergence in internal coordinates in au.
  Criteria marked as inactive (o), active & met (*), and active & unmet ( ).
  --------------------------------------------------------------------------------------------- ~
   Step     Total Energy     Delta E     MAX Force     RMS Force      MAX Disp      RMS Disp    ~
  --------------------------------------------------------------------------------------------- ~
    Convergence Criteria             o    1.50e-05 *    1.00e-05 *    6.00e-05 *    4.00e-05 *  ~
  --------------------------------------------------------------------------------------------- ~
      1   -1908.87838742   -1.91e+03 o    1.72e-06 *    4.67e-07 *    4.83e-04      1.27e-04    ~
  ---------------------------------------------------------------------------------------------

	Writing optimization data to binary file.
	Structure for next step:
	Cartesian Geometry (in Angstrom)
	    C    -0.3306644310  -1.2093915659   0.2178085181
	    O    -1.0566967595   0.7604131878   1.3644019376
	    C    -0.2197545726   0.1458686239   0.4970698882
	    C     0.7989185156   0.8724597444  -0.0905154915
	    H     0.8950500691   1.9147582610   0.1442264407
	    O    -4.1572639355   2.3432896280   1.6881776362
	    C     1.6970970980   0.2692162929  -0.9530414034
	    C     1.5777116020  -1.0839097935  -1.2322654937
	    C     0.5635053882  -1.8173296731  -0.6405014793
	    H     0.4748662079  -2.8647474122  -0.8501845203
	    C    -2.2286865494   1.3016100449   0.8164483319
	    H    -2.8705970263   0.5318179201   0.4109431360
	    H    -1.9950213201   2.0055078648   0.0234668719
	    C    -3.0201424965   2.0510965408   1.8634190286
	    O    -2.3326594980   2.3831109824   2.9376252738
	    H    -2.9121717870   2.8631519238   3.5222085913
	   CL     2.6673197257  -1.9008299718  -2.3014662663
	   CL    -1.5799871461  -2.1589897745   0.9548231796
	   CL     2.9479579548   1.2400714998  -1.6511380043
			--------------------------
			 OPTKING Finished Execution 
			--------------------------

    Structure for next step:
    Molecular point group: c1
    Full point group: C1

    Geometry (in Angstrom), charge = 0, multiplicity = 1:

    C           -0.330663381679    -1.209385712109     0.217804542297
    O           -1.056695710214     0.760419041556     1.364397961742
    C           -0.219753523247     0.145874477681     0.497065912404
    C            0.798919564918     0.872465598211    -0.090519467324
    H            0.895051118392     1.914764114817     0.144222464916
    O           -4.157262886180     2.343295481752     1.688173660369
    C            1.697098147257     0.269222146716    -0.953045379208
    C            1.577712651330    -1.083903939677    -1.232269469551
    C            0.563506437498    -1.817323819295    -0.640505455081
    H            0.474867257247    -2.864741558444    -0.850188496153
    C           -2.228685500120     1.301615898658     0.816444356060
    H           -2.870595977043     0.531823773878     0.410939160222
    H           -1.995020270774     2.005513718591     0.023462896077
    C           -3.020141447216     2.051102394588     1.863415052835
    O           -2.332658448664     2.383116836140     2.937621297954
    H           -2.912170737676     2.863157777559     3.522204615478
    CL           2.667320774997    -1.900824118060    -2.301470242072
    CL          -1.579986096797    -2.158983920748     0.954819203835
    CL           2.947959004089     1.240077353580    -1.651141980065

gradient() will perform analytic gradient computation.

*** tstart() called on dakota
*** at Thu Sep 27 10:41:04 2018


         ---------------------------------------------------------
                                   SCF
            by Justin Turney, Rob Parrish, and Andy Simmonett
                              RHF Reference
                        8 Threads,  20000 MiB Core
         ---------------------------------------------------------

  ==> Geometry <==

    Molecular point group: c1
    Full point group: C1

    Geometry (in Angstrom), charge = 0, multiplicity = 1:

       Center              X                  Y                   Z               Mass       
    ------------   -----------------  -----------------  -----------------  -----------------
           C         -0.330663381679    -1.209385712109     0.217804542297    12.000000000000
           O         -1.056695710214     0.760419041556     1.364397961742    15.994914619560
           C         -0.219753523247     0.145874477681     0.497065912404    12.000000000000
           C          0.798919564918     0.872465598211    -0.090519467324    12.000000000000
           H          0.895051118392     1.914764114817     0.144222464916     1.007825032070
           O         -4.157262886180     2.343295481752     1.688173660369    15.994914619560
           C          1.697098147257     0.269222146716    -0.953045379208    12.000000000000
           C          1.577712651330    -1.083903939677    -1.232269469551    12.000000000000
           C          0.563506437498    -1.817323819295    -0.640505455081    12.000000000000
           H          0.474867257247    -2.864741558444    -0.850188496153     1.007825032070
           C         -2.228685500120     1.301615898658     0.816444356060    12.000000000000
           H         -2.870595977043     0.531823773878     0.410939160222     1.007825032070
           H         -1.995020270774     2.005513718591     0.023462896077     1.007825032070
           C         -3.020141447216     2.051102394588     1.863415052835    12.000000000000
           O         -2.332658448664     2.383116836140     2.937621297954    15.994914619560
           H         -2.912170737676     2.863157777559     3.522204615478     1.007825032070
          CL          2.667320774997    -1.900824118060    -2.301470242072    34.968852682000
          CL         -1.579986096797    -2.158983920748     0.954819203835    34.968852682000
          CL          2.947959004089     1.240077353580    -1.651141980065    34.968852682000

  Running in c1 symmetry.

  Rotational constants: A =      0.02710  B =      0.00820  C =      0.00656 [cm^-1]
  Rotational constants: A =    812.39098  B =    245.78424  C =    196.57315 [MHz]
  Nuclear repulsion = 1167.279683573796774

  Charge       = 0
  Multiplicity = 1
  Electrons    = 128
  Nalpha       = 64
  Nbeta        = 64

  ==> Algorithm <==

  SCF Algorithm Type is DF.
  DIIS enabled.
  MOM disabled.
  Fractional occupation disabled.
  Guess Type is READ.
  Energy threshold   = 1.00e-08
  Density threshold  = 1.00e-08
  Integral threshold = 0.00e+00

  ==> Primary Basis <==

  Basis Set: file /usr/local/software/miniconda2/envs/p4env/share/psi4/basis/6-31g_d_.gbs
    Number of shells: 100
    Number of basis function: 232
    Number of Cartesian functions: 232
    Spherical Harmonics?: false
    Max angular momentum: 2

  Reading orbitals from file 180, no projection.

  ==> Pre-Iterations <==

   -------------------------------------------------------
    Irrep   Nso     Nmo     Nalpha   Nbeta   Ndocc  Nsocc
   -------------------------------------------------------
     A        232     232       0       0       0       0
   -------------------------------------------------------
    Total     232     232      64      64      64       0
   -------------------------------------------------------

  ==> Integral Setup <==

  ==> DFJK: Density-Fitted J/K Matrices <==

    J tasked:                  Yes
    K tasked:                  Yes
    wK tasked:                  No
    OpenMP threads:              8
    Integrals threads:           8
    Memory (MB):             14305
    Algorithm:                Core
    Integral Cache:           NONE
    Schwarz Cutoff:          1E-12
    Fitting Condition:       1E-12

   => Auxiliary Basis Set <=

  Basis Set: file /usr/local/software/miniconda2/envs/p4env/share/psi4/basis/cc-pvdz-jkfit.gbs
    Number of shells: 417
    Number of basis function: 1406
    Number of Cartesian functions: 1406
    Spherical Harmonics?: false
    Max angular momentum: 3

  Minimum eigenvalue in the overlap matrix is 3.6821839099E-04.
  Using Symmetric Orthogonalization.

  SCF Guess: Orbitals guess was supplied from a previous computation.

  ==> Iterations <==

                           Total Energy        Delta E     RMS |[F,P]|

   @DF-RHF iter   0: -1908.87838367092968   -1.90888e+03   5.02767e-06 
   @DF-RHF iter   1: -1908.87838740278130   -3.73185e-06   5.97501e-07 
   @DF-RHF iter   2: -1908.87838742156646   -1.87852e-08   2.13641e-07 DIIS
   @DF-RHF iter   3: -1908.87838742502208   -3.45563e-09   5.52988e-08 DIIS
   @DF-RHF iter   4: -1908.87838742526947   -2.47383e-10   3.18756e-08 DIIS
   @DF-RHF iter   5: -1908.87838742534518   -7.57154e-11   1.25456e-08 DIIS
   @DF-RHF iter   6: -1908.87838742536405   -1.88720e-11   4.25875e-09 DIIS

  ==> Post-Iterations <==

    Orbital Energies (a.u.)
    -----------------------

    Doubly Occupied:                                                      

       1A   -104.849875     2A   -104.849069     3A   -104.847854  
       4A    -20.631834     5A    -20.616464     6A    -20.568003  
       7A    -11.403178     8A    -11.339267     9A    -11.338486  
      10A    -11.335111    11A    -11.330160    12A    -11.323024  
      13A    -11.285265    14A    -11.277524    15A    -10.582911  
      16A    -10.582337    17A    -10.581076    18A     -8.052360  
      19A     -8.051781    20A     -8.050522    21A     -8.048893  
      22A     -8.048834    23A     -8.048246    24A     -8.048224  
      25A     -8.046981    26A     -8.046976    27A     -1.498136  
      28A     -1.449738    29A     -1.386532    30A     -1.245994  
      31A     -1.188350    32A     -1.155952    33A     -1.115872  
      34A     -1.056863    35A     -1.022895    36A     -0.981729  
      37A     -0.884805    38A     -0.858333    39A     -0.830898  
      40A     -0.746379    41A     -0.740947    42A     -0.725104  
      43A     -0.708273    44A     -0.684464    45A     -0.675864  
      46A     -0.650677    47A     -0.625461    48A     -0.622399  
      49A     -0.610492    50A     -0.592116    51A     -0.577590  
      52A     -0.567773    53A     -0.559084    54A     -0.530308  
      55A     -0.502606    56A     -0.501996    57A     -0.487882  
      58A     -0.478573    59A     -0.471508    60A     -0.466471  
      61A     -0.460694    62A     -0.458600    63A     -0.368594  
      64A     -0.348124  

    Virtual:                                                              

      65A      0.094393    66A      0.103624    67A      0.147321  
      68A      0.174741    69A      0.202828    70A      0.215628  
      71A      0.233482    72A      0.247181    73A      0.281240  
      74A      0.291690    75A      0.306058    76A      0.316795  
      77A      0.330997    78A      0.381680    79A      0.416949  
      80A      0.428560    81A      0.437306    82A      0.466478  
      83A      0.471160    84A      0.478061    85A      0.516104  
      86A      0.527621    87A      0.544948    88A      0.578049  
      89A      0.584277    90A      0.596381    91A      0.601151  
      92A      0.618724    93A      0.622577    94A      0.637759  
      95A      0.651588    96A      0.658569    97A      0.671272  
      98A      0.683711    99A      0.701575   100A      0.718620  
     101A      0.738554   102A      0.763593   103A      0.767289  
     104A      0.783594   105A      0.791945   106A      0.806640  
     107A      0.812023   108A      0.847661   109A      0.852890  
     110A      0.873131   111A      0.888722   112A      0.924151  
     113A      0.938250   114A      0.944253   115A      0.960622  
     116A      0.967810   117A      0.983982   118A      1.008654  
     119A      1.024363   120A      1.041016   121A      1.051049  
     122A      1.057854   123A      1.071432   124A      1.090881  
     125A      1.108222   126A      1.110920   127A      1.116118  
     128A      1.124881   129A      1.129226   130A      1.132686  
     131A      1.136132   132A      1.141342   133A      1.169101  
     134A      1.180911   135A      1.195954   136A      1.201005  
     137A      1.216507   138A      1.227635   139A      1.249792  
     140A      1.255289   141A      1.283609   142A      1.290433  
     143A      1.300589   144A      1.324853   145A      1.334214  
     146A      1.345704   147A      1.364567   148A      1.390197  
     149A      1.414869   150A      1.426182   151A      1.434125  
     152A      1.450695   153A      1.494162   154A      1.559446  
     155A      1.571304   156A      1.595390   157A      1.627468  
     158A      1.652407   159A      1.661503   160A      1.678806  
     161A      1.682941   162A      1.715857   163A      1.750472  
     164A      1.774367   165A      1.783598   166A      1.793714  
     167A      1.821932   168A      1.862978   169A      1.908354  
     170A      1.966981   171A      2.013303   172A      2.028090  
     173A      2.052933   174A      2.059847   175A      2.067444  
     176A      2.097210   177A      2.104551   178A      2.159642  
     179A      2.183277   180A      2.206651   181A      2.219769  
     182A      2.237388   183A      2.261321   184A      2.323169  
     185A      2.340811   186A      2.350826   187A      2.384950  
     188A      2.403517   189A      2.414009   190A      2.420763  
     191A      2.456098   192A      2.475964   193A      2.533738  
     194A      2.544832   195A      2.581768   196A      2.595903  
     197A      2.636013   198A      2.706418   199A      2.729307  
     200A      2.770560   201A      2.834812   202A      2.882193  
     203A      2.930882   204A      2.969054   205A      3.002456  
     206A      3.020112   207A      3.053005   208A      3.068013  
     209A      3.089535   210A      3.116929   211A      3.177211  
     212A      3.192727   213A      3.248771   214A      3.323151  
     215A      3.456422   216A      3.481665   217A      3.542143  
     218A      3.709842   219A      4.259678   220A      4.424112  
     221A      4.460716   222A      4.483921   223A      4.517714  
     224A      4.579331   225A      4.630124   226A      4.655253  
     227A      4.721360   228A      4.744900   229A      4.797748  
     230A      4.875031   231A      4.924774   232A      5.151299  

    Final Occupation by Irrep:
              A 
    DOCC [    64 ]

  Energy converged.

  @DF-RHF Final Energy: -1908.87838742536405

   => Energetics <=

    Nuclear Repulsion Energy =           1167.2796835737967740
    One-Electron Energy =               -4952.2714944794333860
    Two-Electron Energy =                1876.1134234802725587
    DFT Exchange-Correlation Energy =       0.0000000000000000
    Empirical Dispersion Energy =           0.0000000000000000
    PCM Polarization Energy =               0.0000000000000000
    EFP Energy =                            0.0000000000000000
    Total Energy =                      -1908.8783874253640533

    Alert: EFP and PCM quantities not currently incorporated into SCF psivars.

Properties will be evaluated at   0.000000,   0.000000,   0.000000 Bohr

Properties computed using the SCF density matrix

  Nuclear Dipole Moment: (a.u.)
     X:    -9.7375      Y:     6.7799      Z:     5.8204

  Electronic Dipole Moment: (a.u.)
     X:     9.7183      Y:    -6.5093      Z:    -5.7065

  Dipole Moment: (a.u.)
     X:    -0.0192      Y:     0.2706      Z:     0.1139     Total:     0.2942

  Dipole Moment: (Debye)
     X:    -0.0489      Y:     0.6878      Z:     0.2896     Total:     0.7479


*** tstop() called on dakota at Thu Sep 27 10:41:22 2018
Module time:
	user time   =      55.77 seconds =       0.93 minutes
	system time =       1.23 seconds =       0.02 minutes
	total time  =         18 seconds =       0.30 minutes
Total time:
	user time   =     216.68 seconds =       3.61 minutes
	system time =       4.52 seconds =       0.08 minutes
	total time  =         60 seconds =       1.00 minutes

*** tstart() called on dakota
*** at Thu Sep 27 10:41:22 2018


         ------------------------------------------------------------
                                   SCF GRAD                          
                          Rob Parrish, Justin Turney,                
                       Andy Simmonett, and Alex Sokolov              
         ------------------------------------------------------------

  ==> Geometry <==

    Molecular point group: c1
    Full point group: C1

    Geometry (in Angstrom), charge = 0, multiplicity = 1:

       Center              X                  Y                   Z               Mass       
    ------------   -----------------  -----------------  -----------------  -----------------
           C         -0.330663381679    -1.209385712109     0.217804542297    12.000000000000
           O         -1.056695710214     0.760419041556     1.364397961742    15.994914619560
           C         -0.219753523247     0.145874477681     0.497065912404    12.000000000000
           C          0.798919564918     0.872465598211    -0.090519467324    12.000000000000
           H          0.895051118392     1.914764114817     0.144222464916     1.007825032070
           O         -4.157262886180     2.343295481752     1.688173660369    15.994914619560
           C          1.697098147257     0.269222146716    -0.953045379208    12.000000000000
           C          1.577712651330    -1.083903939677    -1.232269469551    12.000000000000
           C          0.563506437498    -1.817323819295    -0.640505455081    12.000000000000
           H          0.474867257247    -2.864741558444    -0.850188496153     1.007825032070
           C         -2.228685500120     1.301615898658     0.816444356060    12.000000000000
           H         -2.870595977043     0.531823773878     0.410939160222     1.007825032070
           H         -1.995020270774     2.005513718591     0.023462896077     1.007825032070
           C         -3.020141447216     2.051102394588     1.863415052835    12.000000000000
           O         -2.332658448664     2.383116836140     2.937621297954    15.994914619560
           H         -2.912170737676     2.863157777559     3.522204615478     1.007825032070
          CL          2.667320774997    -1.900824118060    -2.301470242072    34.968852682000
          CL         -1.579986096797    -2.158983920748     0.954819203835    34.968852682000
          CL          2.947959004089     1.240077353580    -1.651141980065    34.968852682000

  Nuclear repulsion = 1167.279683573796774

  ==> Basis Set <==

  Basis Set: file /usr/local/software/miniconda2/envs/p4env/share/psi4/basis/6-31g_d_.gbs
    Number of shells: 100
    Number of basis function: 232
    Number of Cartesian functions: 232
    Spherical Harmonics?: false
    Max angular momentum: 2

  ==> DFJKGrad: Density-Fitted SCF Gradients <==

    Gradient:                    1
    J tasked:                  Yes
    K tasked:                  Yes
    wK tasked:                  No
    OpenMP threads:              8
    Integrals threads:           8
    Memory (MB):             14305
    Schwarz Cutoff:          0E+00
    Fitting Condition:       1E-12

   => Auxiliary Basis Set <=

  Basis Set: file /usr/local/software/miniconda2/envs/p4env/share/psi4/basis/cc-pvdz-jkfit.gbs
    Number of shells: 417
    Number of basis function: 1406
    Number of Cartesian functions: 1406
    Spherical Harmonics?: false
    Max angular momentum: 3


  -Total Gradient:
     Atom            X                  Y                   Z
    ------   -----------------  -----------------  -----------------
       1        0.000000458414    -0.000000909349    -0.000000550621
       2        0.000000899759     0.000000176741    -0.000001713783
       3       -0.000000758350     0.000000108646    -0.000000123050
       4        0.000000152711    -0.000000237796    -0.000000185027
       5        0.000000066888    -0.000000294108    -0.000000196080
       6       -0.000000086547    -0.000000822141    -0.000002199164
       7       -0.000000048602    -0.000000222507     0.000000141622
       8       -0.000000322774     0.000000060691     0.000000130116
       9        0.000000076077     0.000000749398     0.000000148703
      10       -0.000000039385     0.000000557781     0.000000212700
      11        0.000001711997     0.000000895918     0.000001621964
      12       -0.000000007852    -0.000001793350    -0.000000393879
      13       -0.000002953266    -0.000001299415     0.000000149740
      14        0.000004400931     0.000005629513     0.000002311184
      15       -0.000003083633    -0.000002437823     0.000000822478
      16       -0.000000236585    -0.000000206410    -0.000000280083
      17        0.000000003384    -0.000000072514     0.000000031904
      18       -0.000000175779     0.000000102645     0.000000026671
      19       -0.000000057591     0.000000014106     0.000000044439


*** tstop() called on dakota at Thu Sep 27 10:41:37 2018
Module time:
	user time   =      50.18 seconds =       0.84 minutes
	system time =       0.93 seconds =       0.02 minutes
	total time  =         15 seconds =       0.25 minutes
Total time:
	user time   =     266.87 seconds =       4.45 minutes
	system time =       5.45 seconds =       0.09 minutes
	total time  =         75 seconds =       1.25 minutes

			-----------------------------------------
			 OPTKING 2.0: for geometry optimizations 
			  - R.A. King,  Bethel University        
			-----------------------------------------

	Previous internal coordinate definitions found.
	---Fragment 1 Geometry and Gradient---
	 C          -0.6248632335       -2.2854077849        0.4115909354
	 O          -1.9968654981        1.4369837348        2.5783384840
	 C          -0.4152739757        0.2756628126        0.9393184444
	 C           1.5097391799        1.6487210410       -0.1710570029
	 H           1.6914014887        3.6183797861        0.2725409609
	 O          -7.8560883173        4.4281867089        3.1901858828
	 C           3.2070507189        0.5087561262       -1.8009947589
	 C           2.9814448274       -2.0482816003       -2.3286518194
	 C           1.0648728410       -3.4342443132       -1.2103798967
	 H           0.8973690657       -5.4135769870       -1.6066234191
	 C          -4.2116052316        2.4596975787        1.5428562357
	 H          -5.4246402348        1.0050012836        0.7765624701
	 H          -3.7700419413        3.7898716839        0.0443384479
	 C          -5.7072402178        3.8760217963        3.5213441218
	 O          -4.4080856295        4.5034381630        5.5512997353
	 H          -5.5032051464        5.4105840748        6.6560021072
	 CL          5.0405057733       -3.5920370099       -4.3491484605
	 CL         -2.9857410167       -4.0798883355        1.8043468017
	 CL          5.5708351687        2.3434065819       -3.1202061488
	             0.0000004584       -0.0000009093       -0.0000005506
	             0.0000008998        0.0000001767       -0.0000017138
	            -0.0000007583        0.0000001086       -0.0000001231
	             0.0000001527       -0.0000002378       -0.0000001850
	             0.0000000669       -0.0000002941       -0.0000001961
	            -0.0000000865       -0.0000008221       -0.0000021992
	            -0.0000000486       -0.0000002225        0.0000001416
	            -0.0000003228        0.0000000607        0.0000001301
	             0.0000000761        0.0000007494        0.0000001487
	            -0.0000000394        0.0000005578        0.0000002127
	             0.0000017120        0.0000008959        0.0000016220
	            -0.0000000079       -0.0000017934       -0.0000003939
	            -0.0000029533       -0.0000012994        0.0000001497
	             0.0000044009        0.0000056295        0.0000023112
	            -0.0000030836       -0.0000024378        0.0000008225
	            -0.0000002366       -0.0000002064       -0.0000002801
	             0.0000000034       -0.0000000725        0.0000000319
	            -0.0000001758        0.0000001026        0.0000000267
	            -0.0000000576        0.0000000141        0.0000000444

	---Fragment 1 Intrafragment Coordinates---
	 - Coordinate -           - BOHR/RAD -       - ANG/DEG -
	 R(1,3)           =         2.623263	       1.388171
	 R(1,9)           =         2.608797	       1.380516
	 R(1,18)          =         3.276229	       1.733705
	 R(2,3)           =         2.556655	       1.352924
	 R(2,11)          =         2.650139	       1.402393
	 R(3,4)           =         2.612259	       1.382348
	 R(4,5)           =         2.027150	       1.072721
	 R(4,7)           =         2.614782	       1.383683
	 R(6,14)          =         2.243234	       1.187068
	 R(7,8)           =         2.620642	       1.386784
	 R(7,19)          =         3.270128	       1.730477
	 R(8,9)           =         2.616233	       1.384451
	 R(8,17)          =         3.271898	       1.731414
	 R(9,10)          =         2.025543	       1.071871
	 R(11,12)         =         2.043233	       1.081232
	 R(11,13)         =         2.051803	       1.085768
	 R(11,14)         =         2.856101	       1.511384
	 R(14,15)         =         2.490416	       1.317872
	 R(15,16)         =         1.800713	       0.952896
	 B(1,3,2)         =         2.121172	     121.534220
	 B(1,3,4)         =         2.078905	     119.112472
	 B(1,9,8)         =         2.102442	     120.461032
	 B(1,9,10)        =         2.092533	     119.893292
	 B(2,3,4)         =         2.082442	     119.315140
	 B(2,11,12)       =         1.947581	     111.588190
	 B(2,11,13)       =         1.934457	     110.836199
	 B(2,11,14)       =         1.937278	     110.997867
	 B(3,1,9)         =         2.098158	     120.215620
	 B(3,1,18)        =         2.102260	     120.450640
	 B(3,2,11)        =         2.028388	     116.218068
	 B(3,4,5)         =         2.075715	     118.929729
	 B(3,4,7)         =         2.110822	     120.941209
	 B(4,7,8)         =         2.088651	     119.670878
	 B(4,7,19)        =         2.066997	     118.430228
	 B(5,4,7)         =         2.096524	     120.121950
	 B(6,14,11)       =         2.119321	     121.428145
	 B(6,14,15)       =         2.162807	     123.919690
	 B(7,8,9)         =         2.087366	     119.597278
	 B(7,8,17)        =         2.130025	     122.041420
	 B(8,7,19)        =         2.127534	     121.898696
	 B(8,9,10)        =         2.088209	     119.645576
	 B(9,1,18)        =         2.082707	     119.330333
	 B(9,8,17)        =         2.065786	     118.360820
	 B(11,14,15)      =         2.000279	     114.607539
	 B(12,11,13)      =         1.891692	     108.385984
	 B(12,11,14)      =         1.877549	     107.575621
	 B(13,11,14)      =         1.872487	     107.285617
	 B(14,15,16)      =         1.885690	     108.042064
	 D(1,3,2,11)      =        -1.571225	     -90.024573
	 D(1,3,4,5)       =        -3.118221	    -178.660896
	 D(1,3,4,7)       =         0.006459	       0.370052
	 D(1,9,8,7)       =         0.005774	       0.330823
	 D(1,9,8,17)      =        -3.140137	    -179.916585
	 D(2,3,1,9)       =        -3.106963	    -178.015867
	 D(2,3,1,18)      =         0.022832	       1.308171
	 D(2,3,4,5)       =        -0.015236	      -0.872961
	 D(2,3,4,7)       =         3.109443	     178.157987
	 D(2,11,14,6)     =        -2.865083	    -164.157192
	 D(2,11,14,15)    =         0.317326	      18.181433
	 D(3,1,9,8)       =        -0.001217	      -0.069713
	 D(3,1,9,10)      =         3.138371	     179.815395
	 D(3,2,11,12)     =         1.125758	      64.501193
	 D(3,2,11,13)     =        -0.984347	     -56.398907
	 D(3,2,11,14)     =        -3.063358	    -175.517502
	 D(3,4,7,8)       =        -0.001939	      -0.111091
	 D(3,4,7,19)      =        -3.140761	    -179.952340
	 D(4,3,1,9)       =        -0.004867	      -0.278858
	 D(4,3,1,18)      =         3.124928	     179.045180
	 D(4,3,2,11)      =         1.609942	      92.242901
	 D(4,7,8,9)       =        -0.004197	      -0.240462
	 D(4,7,8,17)      =        -3.141307	    -179.983625
	 D(5,4,7,8)       =         3.122540	     178.908368
	 D(5,4,7,19)      =        -0.016282	      -0.932881
	 D(6,14,11,12)    =        -0.729806	     -41.814819
	 D(6,14,11,13)    =         1.302255	      74.613729
	 D(6,14,15,16)    =         0.021433	       1.228037
	 D(7,8,9,10)      =        -3.133818	    -179.554570
	 D(8,9,1,18)      =        -3.131143	    -179.401306
	 D(9,8,7,19)      =         3.134526	     179.595100
	 D(10,9,1,18)     =         0.008444	       0.483802
	 D(10,9,8,17)     =         0.003456	       0.198023
	 D(11,14,15,16)   =         3.121054	     178.823218
	 D(12,11,14,15)   =         2.452603	     140.523807
	 D(13,11,14,15)   =        -1.798521	    -103.047646
	 D(17,8,7,19)     =        -0.002584	      -0.148063
	 R(11,18)         =         6.658626	       3.523593

	Current energy   :     -1908.8783874254

	Energy change for the previous step:
		Projected    :        -0.0000000042
		Actual       :        -0.0000000010
	Energy ratio indicates iffy step: Trust radius decreased to 1.250e-01.


	Performing BFGS update.
	Previous computed or guess Hessian on step 1.
	Steps to be used in Hessian update: 1
	Taking RFO optimization step.
	Going to follow RFO solution 1.
	Using RFO vector 1.
	Norm of target step-size    0.01645
	Projected energy change by RFO approximation:        -0.0000009881

	Back-transformation to cartesian coordinates...
	Could not converge backtransformation.
	Using first guess instead.

	--- Internal Coordinate Step in ANG or DEG, aJ/ANG or AJ/DEG ---
	 ---------------------------------------------------------------------------
	   Coordinate                Previous        Force       Change         New 
	   ----------                --------       ------       ------       ------
	    1 R(1,3)          =      1.388171    -0.000002     0.000003     1.388173
	    2 R(1,9)          =      1.380516     0.000007     0.000003     1.380519
	    3 R(1,18)         =      1.733705    -0.000001     0.000000     1.733706
	    4 R(2,3)          =      1.352924     0.000000     0.000003     1.352927
	    5 R(2,11)         =      1.402393     0.000004     0.000007     1.402400
	    6 R(3,4)          =      1.382348    -0.000000     0.000009     1.382357
	    7 R(4,5)          =      1.072721     0.000003     0.000005     1.072727
	    8 R(4,7)          =      1.383683     0.000003     0.000001     1.383684
	    9 R(6,14)         =      1.187068    -0.000002     0.000010     1.187078
	   10 R(7,8)          =      1.386784     0.000004     0.000006     1.386789
	   11 R(7,19)         =      1.730477     0.000000     0.000000     1.730477
	   12 R(8,9)          =      1.384451     0.000005     0.000006     1.384457
	   13 R(8,17)         =      1.731414    -0.000000     0.000001     1.731415
	   14 R(9,10)         =      1.071871     0.000005     0.000007     1.071878
	   15 R(11,12)        =      1.081232    -0.000012    -0.000012     1.081220
	   16 R(11,13)        =      1.085768     0.000013     0.000013     1.085781
	   17 R(11,14)        =      1.511384    -0.000008    -0.000011     1.511373
	   18 R(14,15)        =      1.317872     0.000016     0.000040     1.317911
	   19 R(15,16)        =      0.952896     0.000001     0.000001     0.952897
	   20 B(1,3,2)        =    121.534220    -0.000000    -0.000290   121.533930
	   21 B(1,3,4)        =    119.112472     0.000000     0.000086   119.112558
	   22 B(1,9,8)        =    120.461032    -0.000000    -0.000548   120.460485
	   23 B(1,9,10)       =    119.893292     0.000000     0.000579   119.893872
	   24 B(2,3,4)        =    119.315140    -0.000000     0.000184   119.315324
	   25 B(2,11,12)      =    111.588190     0.000000     0.003011   111.591200
	   26 B(2,11,13)      =    110.836199     0.000000    -0.002800   110.833399
	   27 B(2,11,14)      =    110.997867    -0.000000    -0.007817   110.990050
	   28 B(3,1,9)        =    120.215620     0.000000     0.000311   120.215931
	   29 B(3,1,18)       =    120.450640    -0.000000     0.000275   120.450915
	   30 B(3,2,11)       =    116.218068     0.000000     0.002018   116.220085
	   31 B(3,4,5)        =    118.929729    -0.000000     0.000017   118.929746
	   32 B(3,4,7)        =    120.941209    -0.000000    -0.000204   120.941005
	   33 B(4,7,8)        =    119.670878     0.000000    -0.000071   119.670807
	   34 B(4,7,19)       =    118.430228     0.000000    -0.000299   118.429929
	   35 B(5,4,7)        =    120.121950     0.000000     0.000179   120.122129
	   36 B(6,14,11)      =    121.428145     0.000000     0.005661   121.433807
	   37 B(6,14,15)      =    123.919690    -0.000000    -0.000970   123.918720
	   38 B(7,8,9)        =    119.597278     0.000000     0.000422   119.597700
	   39 B(7,8,17)       =    122.041420    -0.000000     0.000002   122.041421
	   40 B(8,7,19)       =    121.898696    -0.000000     0.000369   121.899065
	   41 B(8,9,10)       =    119.645576     0.000000    -0.000032   119.645545
	   42 B(9,1,18)       =    119.330333    -0.000000    -0.000585   119.329748
	   43 B(9,8,17)       =    118.360820     0.000000    -0.000425   118.360395
	   44 B(11,14,15)     =    114.607539    -0.000000    -0.008513   114.599027
	   45 B(12,11,13)     =    108.385984     0.000000     0.004799   108.390783
	   46 B(12,11,14)     =    107.575621     0.000000     0.001484   107.577105
	   47 B(13,11,14)     =    107.285617     0.000000     0.001654   107.287271
	   48 B(14,15,16)     =    108.042064     0.000000     0.001703   108.043767
	   49 D(1,3,2,11)     =    -90.024573    -0.000000    -0.003472   -90.028045
	   50 D(1,3,4,5)      =   -178.660896    -0.000000     0.001241  -178.659655
	   51 D(1,3,4,7)      =      0.370052     0.000000     0.000719     0.370771
	   52 D(1,9,8,7)      =      0.330823    -0.000000     0.000062     0.330885
	   53 D(1,9,8,17)     =   -179.916585     0.000000    -0.000359  -179.916944
	   54 D(2,3,1,9)      =   -178.015867    -0.000000    -0.000264  -178.016131
	   55 D(2,3,1,18)     =      1.308171    -0.000000    -0.000074     1.308097
	   56 D(2,3,4,5)      =     -0.872961     0.000000     0.000650    -0.872312
	   57 D(2,3,4,7)      =    178.157987     0.000000     0.000128   178.158115
	   58 D(2,11,14,6)    =   -164.157192    -0.000000     0.323261  -163.833932
	   59 D(2,11,14,15)   =     18.181433     0.000000     0.421326    18.602759
	   60 D(3,1,9,8)      =     -0.069713    -0.000000     0.000475    -0.069238
	   61 D(3,1,9,10)     =    179.815395     0.000000     0.000241   179.815637
	   62 D(3,2,11,12)    =     64.501193     0.000000     0.097158    64.598351
	   63 D(3,2,11,13)    =    -56.398907    -0.000000     0.090931   -56.307975
	   64 D(3,2,11,14)    =   -175.517502     0.000000     0.095759  -175.421743
	   65 D(3,4,7,8)      =     -0.111091    -0.000000    -0.000191    -0.111282
	   66 D(3,4,7,19)     =   -179.952340    -0.000000     0.000004  -179.952336
	   67 D(4,3,1,9)      =     -0.278858    -0.000000    -0.000857    -0.279715
	   68 D(4,3,1,18)     =    179.045180    -0.000000    -0.000667   179.044513
	   69 D(4,3,2,11)     =     92.242901    -0.000000    -0.002875    92.240026
	   70 D(4,7,8,9)      =     -0.240462     0.000000    -0.000205    -0.240667
	   71 D(4,7,8,17)     =   -179.983625    -0.000000     0.000234  -179.983391
	   72 D(5,4,7,8)      =    178.908368    -0.000000    -0.000721   178.907647
	   73 D(5,4,7,19)     =     -0.932881     0.000000    -0.000526    -0.933407
	   74 D(6,14,11,12)   =    -41.814819    -0.000000     0.323125   -41.491694
	   75 D(6,14,11,13)   =     74.613729     0.000000     0.330302    74.944031
	   76 D(6,14,15,16)   =      1.228037     0.000000     0.049303     1.277341
	   77 D(7,8,9,10)     =   -179.554570    -0.000000     0.000294  -179.554275
	   78 D(8,9,1,18)     =   -179.401306    -0.000000     0.000281  -179.401025
	   79 D(9,8,7,19)     =    179.595100     0.000000    -0.000408   179.594692
	   80 D(10,9,1,18)    =      0.483802     0.000000     0.000047     0.483850
	   81 D(10,9,8,17)    =      0.198023     0.000000    -0.000127     0.197896
	   82 D(11,14,15,16)  =    178.823218    -0.000000    -0.051361   178.771857
	   83 D(12,11,14,15)  =    140.523807     0.000000     0.421190   140.944996
	   84 D(13,11,14,15)  =   -103.047646     0.000000     0.428367  -102.619279
	   85 D(17,8,7,19)    =     -0.148063    -0.000000     0.000031    -0.148032
	   86 R(11,18)        =      3.523593     0.000002     0.000083     3.523676
	 ---------------------------------------------------------------------------
	Successfully symmetrized geometry.

  ==> Convergence Check <==

  Measures of convergence in internal coordinates in au.
  Criteria marked as inactive (o), active & met (*), and active & unmet ( ).
  ---------------------------------------------------------------------------------------------
   Step     Total Energy     Delta E     MAX Force     RMS Force      MAX Disp      RMS Disp   
  ---------------------------------------------------------------------------------------------
    Convergence Criteria             o    1.50e-05 *    1.00e-05 *    6.00e-05 *    4.00e-05 *
  ---------------------------------------------------------------------------------------------
      2   -1908.87838743   -9.67e-10 o    5.19e-06 *    1.18e-06 *    7.48e-03      1.77e-03    ~
  ---------------------------------------------------------------------------------------------

	Writing optimization data to binary file.
	Structure for next step:
	Cartesian Geometry (in Angstrom)
	    C    -0.3311242624  -1.2103266233   0.2166785437
	    O    -1.0577459351   0.7582877445   1.3649453350
	    C    -0.2203829870   0.1446546846   0.4973689523
	    C     0.7985502626   0.8718768540  -0.0890040440
	    H     0.8945543628   1.9139393428   0.1468590393
	    O    -4.1587032220   2.3384174011   1.6915124726
	    C     1.6971398109   0.2695349673  -0.9517339431
	    C     1.5779122356  -1.0833135265  -1.2323953778
	    C     0.5634520505  -1.8173720030  -0.6418450507
	    H     0.4749415537  -2.8645847270  -0.8526409629
	    C    -2.2294860000   1.3000881830   0.8170365429
	    H    -2.8720258245   0.5306374235   0.4119120521
	    H    -1.9954468451   2.0036383684   0.0238386962
	    C    -3.0200971333   2.0503859149   1.8640490405
	    O    -2.3296730545   2.3897572704   2.9341103989
	    H    -2.9086441739   2.8703642320   3.5187661922
	   CL     2.6680333199  -1.8991194206  -2.3019250648
	   CL    -1.5807518337  -2.1607181882   0.9521529393
	   CL     2.9482986514   1.2411376473  -1.6482551268
			--------------------------
			 OPTKING Finished Execution 
			--------------------------

    Structure for next step:
    Molecular point group: c1
    Full point group: C1

    Geometry (in Angstrom), charge = 0, multiplicity = 1:

    C           -0.331103948236    -1.210263546577     0.216611335880
    O           -1.057725620892     0.758350821203     1.364878127211
    C           -0.220362672856     0.144717761360     0.497301744559
    C            0.798570576765     0.871939930714    -0.089071251823
    H            0.894574676993     1.914002419550     0.146791831485
    O           -4.158682907838     2.338480477777     1.691445264871
    C            1.697160125106     0.269598044039    -0.951801150909
    C            1.577932549745    -1.083250449764    -1.232462585560
    C            0.563472364704    -1.817308926264    -0.641912258476
    H            0.474961867900    -2.864521650311    -0.852708170683
    C           -2.229465685814     1.300151259692     0.816969335169
    H           -2.872005510369     0.530700500241     0.411844844313
    H           -1.995426530909     2.003701445110     0.023771488453
    C           -3.020076819112     2.050448991630     1.863981832734
    O           -2.329652740330     2.389820347100     2.934043191104
    H           -2.908623859710     2.870427308721     3.518698984388
    CL           2.668053634038    -1.899056343857    -2.301992272613
    CL          -1.580731519549    -2.160655111514     0.952085731489
    CL           2.948318965526     1.241200724045    -1.648322334567

gradient() will perform analytic gradient computation.

*** tstart() called on dakota
*** at Thu Sep 27 10:41:37 2018


         ---------------------------------------------------------
                                   SCF
            by Justin Turney, Rob Parrish, and Andy Simmonett
                              RHF Reference
                        8 Threads,  20000 MiB Core
         ---------------------------------------------------------

  ==> Geometry <==

    Molecular point group: c1
    Full point group: C1

    Geometry (in Angstrom), charge = 0, multiplicity = 1:

       Center              X                  Y                   Z               Mass       
    ------------   -----------------  -----------------  -----------------  -----------------
           C         -0.331103948236    -1.210263546577     0.216611335880    12.000000000000
           O         -1.057725620892     0.758350821203     1.364878127211    15.994914619560
           C         -0.220362672856     0.144717761360     0.497301744559    12.000000000000
           C          0.798570576765     0.871939930714    -0.089071251823    12.000000000000
           H          0.894574676993     1.914002419550     0.146791831485     1.007825032070
           O         -4.158682907838     2.338480477777     1.691445264871    15.994914619560
           C          1.697160125106     0.269598044039    -0.951801150909    12.000000000000
           C          1.577932549745    -1.083250449764    -1.232462585560    12.000000000000
           C          0.563472364704    -1.817308926264    -0.641912258476    12.000000000000
           H          0.474961867900    -2.864521650311    -0.852708170683     1.007825032070
           C         -2.229465685814     1.300151259692     0.816969335169    12.000000000000
           H         -2.872005510369     0.530700500241     0.411844844313     1.007825032070
           H         -1.995426530909     2.003701445110     0.023771488453     1.007825032070
           C         -3.020076819112     2.050448991630     1.863981832734    12.000000000000
           O         -2.329652740330     2.389820347100     2.934043191104    15.994914619560
           H         -2.908623859710     2.870427308721     3.518698984388     1.007825032070
          CL          2.668053634038    -1.899056343857    -2.301992272613    34.968852682000
          CL         -1.580731519549    -2.160655111514     0.952085731489    34.968852682000
          CL          2.948318965526     1.241200724045    -1.648322334567    34.968852682000

  Running in c1 symmetry.

  Rotational constants: A =      0.02708  B =      0.00820  C =      0.00656 [cm^-1]
  Rotational constants: A =    811.97246  B =    245.85101  C =    196.56440 [MHz]
[...]
	 C           2.9819849493       -2.0468829373       -2.3289070428
	 C           1.0648512725       -3.4342159562       -1.2133037472
	 H           0.8976962342       -5.4131111025       -1.6118682450
	 C          -4.2135517488        2.4566528849        1.5434879654
	 H          -5.4280735654        1.0026600761        0.7783792839
	 H          -3.7710176127        3.7858168861        0.0442953378
	 C          -5.7068481665        3.8753025360        3.5220629233
	 O          -4.4013898045        4.5159734497        5.5439228201
	 H          -5.4949916655        5.4240703460        6.6493409409
	 CL          5.0423075900       -3.5882466752       -4.3499452455
	 CL         -2.9874951571       -4.0834660016        1.7983257340
	 CL          5.5715666277        2.3458484927       -3.1140465432
	             0.0000001124       -0.0000003970       -0.0000005040
	            -0.0000011872        0.0000006962       -0.0000003097
	             0.0000007338        0.0000006169        0.0000000712
	            -0.0000006409       -0.0000001361        0.0000001763
	             0.0000002436        0.0000000452       -0.0000002858
	            -0.0000056485       -0.0000013406       -0.0000030552
	             0.0000001431       -0.0000001265       -0.0000001417
	             0.0000006401        0.0000005825        0.0000002027
	            -0.0000008368       -0.0000001805        0.0000001562
	            -0.0000000238       -0.0000000446        0.0000000645
	             0.0000005786       -0.0000016543        0.0000017591
	            -0.0000013574        0.0000001684       -0.0000010122
	            -0.0000009131       -0.0000000839        0.0000006399
	             0.0000110715        0.0000033127        0.0000049395
	            -0.0000023191       -0.0000014121       -0.0000024181
	            -0.0000002332       -0.0000001449       -0.0000001786
	            -0.0000000824       -0.0000001424       -0.0000001348
	            -0.0000001884        0.0000001490        0.0000000063
	            -0.0000000921        0.0000000918        0.0000000243

	---Fragment 1 Intrafragment Coordinates---
	 - Coordinate -           - BOHR/RAD -       - ANG/DEG -
	 R(1,3)           =         2.623255	       1.388167
	 R(1,9)           =         2.608800	       1.380518
	 R(1,18)          =         3.276221	       1.733702
	 R(2,3)           =         2.556659	       1.352926
	 R(2,11)          =         2.650180	       1.402415
	 R(3,4)           =         2.612260	       1.382349
	 R(4,5)           =         2.027150	       1.072722
	 R(4,7)           =         2.614779	       1.383681
	 R(6,14)          =         2.243210	       1.187056
	 R(7,8)           =         2.620645	       1.386785
	 R(7,19)          =         3.270129	       1.730478
	 R(8,9)           =         2.616231	       1.384450
	 R(8,17)          =         3.271900	       1.731415
	 R(9,10)          =         2.025542	       1.071871
	 R(11,12)         =         2.043171	       1.081200
	 R(11,13)         =         2.051851	       1.085793
	 R(11,14)         =         2.856092	       1.511379
	 R(14,15)         =         2.490502	       1.317917
	 R(15,16)         =         1.800709	       0.952894
	 B(1,3,2)         =         2.121190	     121.535217
	 B(1,3,4)         =         2.078917	     119.113195
	 B(1,9,8)         =         2.102442	     120.461079
	 B(1,9,10)        =         2.092532	     119.893227
	 B(2,3,4)         =         2.082412	     119.313433
	 B(2,11,12)       =         1.947633	     111.591156
	 B(2,11,13)       =         1.934360	     110.830680
	 B(2,11,14)       =         1.936988	     110.981245
	 B(3,1,9)         =         2.098150	     120.215140
	 B(3,1,18)        =         2.102263	     120.450790
	 B(3,2,11)        =         2.028462	     116.222298
	 B(3,4,5)         =         2.075703	     118.929039
	 B(3,4,7)         =         2.110816	     120.940823
	 B(4,7,8)         =         2.088650	     119.670810
	 B(4,7,19)        =         2.066998	     118.430282
	 B(5,4,7)         =         2.096542	     120.123021
	 B(6,14,11)       =         2.119652	     121.447092
	 B(6,14,15)       =         2.162766	     123.917362
	 B(7,8,9)         =         2.087369	     119.597438
	 B(7,8,17)        =         2.130023	     122.041329
	 B(8,7,19)        =         2.127534	     121.898710
	 B(8,9,10)        =         2.088210	     119.645597
	 B(9,1,18)        =         2.082713	     119.330663
	 B(9,8,17)        =         2.065785	     118.360753
	 B(11,14,15)      =         1.999963	     114.589417
	 B(12,11,13)      =         1.891868	     108.396066
	 B(12,11,14)      =         1.877689	     107.583676
	 B(13,11,14)      =         1.872521	     107.287541
	 B(14,15,16)      =         1.885730	     108.044350
	 D(1,3,2,11)      =        -1.571310	     -90.029431
	 D(1,3,4,5)       =        -3.118201	    -178.659753
	 D(1,3,4,7)       =         0.006473	       0.370897
	 D(1,9,8,7)       =         0.005778	       0.331070
	 D(1,9,8,17)      =        -3.140125	    -179.915918
	 D(2,3,1,9)       =        -3.106974	    -178.016513
	 D(2,3,1,18)      =         0.022821	       1.307559
	 D(2,3,4,5)       =        -0.015209	      -0.871394
	 D(2,3,4,7)       =         3.109466	     178.159256
	 D(2,11,14,6)     =        -2.858717	    -163.792445
	 D(2,11,14,15)    =         0.324375	      18.585332
	 D(3,1,9,8)       =        -0.001221	      -0.069983
	 D(3,1,9,10)      =         3.138378	     179.815812
	 D(3,2,11,12)     =         1.127902	      64.624002
	 D(3,2,11,13)     =        -0.982396	     -56.287142
	 D(3,2,11,14)     =        -3.061199	    -175.393762
	 D(3,4,7,8)       =        -0.001954	      -0.111958
	 D(3,4,7,19)      =        -3.140770	    -179.952865
	 D(4,3,1,9)       =        -0.004872	      -0.279131
	 D(4,3,1,18)      =         3.124924	     179.044940
	 D(4,3,2,11)      =         1.609850	      92.237616
	 D(4,7,8,9)       =        -0.004191	      -0.240147
	 D(4,7,8,17)      =        -3.141309	    -179.983744
	 D(5,4,7,8)       =         3.122519	     178.907183
	 D(5,4,7,19)      =        -0.016297	      -0.933725
	 D(6,14,11,12)    =        -0.723463	     -41.451401
	 D(6,14,11,13)    =         1.308891	      74.993931
	 D(6,14,15,16)    =         0.021713	       1.244036
	 D(7,8,9,10)      =        -3.133826	    -179.555006
	 D(8,9,1,18)      =        -3.131149	    -179.401608
	 D(9,8,7,19)      =         3.134525	     179.595061
	 D(10,9,1,18)     =         0.008451	       0.484187
	 D(10,9,8,17)     =         0.003456	       0.198005
	 D(11,14,15,16)   =         3.120640	     178.799516
	 D(12,11,14,15)   =         2.459629	     140.926376
	 D(13,11,14,15)   =        -1.791202	    -102.628292
	 D(17,8,7,19)     =        -0.002592	      -0.148536
	 R(11,18)         =         6.658927	       3.523753

	Current energy   :     -1908.8783874567

	Energy change for the previous step:
		Projected    :        -0.0000000256
		Actual       :        -0.0000000012
	Energy ratio indicates iffy step: Trust radius decreased to 3.125e-02.


	Performing BFGS update.
	Previous computed or guess Hessian on step 1.
	Denominators (dg)(dq) or (dq)(dq) are very small.
	 Skipping Hessian update for step 5.
	Denominators (dg)(dq) or (dq)(dq) are very small.
	 Skipping Hessian update for step 4.
	Denominators (dg)(dq) or (dq)(dq) are very small.
	 Skipping Hessian update for step 2.
	Denominators (dg)(dq) or (dq)(dq) are very small.
	 Skipping Hessian update for step 1.
	Steps to be used in Hessian update: 3
	Taking RFO optimization step.
	Going to follow RFO solution 1.
	Using RFO vector 1.
	Norm of target step-size    0.00008
	Projected energy change by RFO approximation:        -0.0000000003

	Back-transformation to cartesian coordinates...
	Successfully converged to displaced geometry.

	--- Internal Coordinate Step in ANG or DEG, aJ/ANG or AJ/DEG ---
	 ---------------------------------------------------------------------------
	   Coordinate                Previous        Force       Change         New 
	   ----------                --------       ------       ------       ------
	    1 R(1,3)          =      1.388167    -0.000006    -0.000000     1.388167
	    2 R(1,9)          =      1.380518     0.000004     0.000000     1.380518
	    3 R(1,18)         =      1.733702    -0.000002    -0.000000     1.733701
	    4 R(2,3)          =      1.352926    -0.000002    -0.000000     1.352925
	    5 R(2,11)         =      1.402415     0.000012     0.000002     1.402416
	    6 R(3,4)          =      1.382349     0.000001     0.000000     1.382349
	    7 R(4,5)          =      1.072722    -0.000000     0.000000     1.072722
	    8 R(4,7)          =      1.383681    -0.000001    -0.000000     1.383681
	    9 R(6,14)         =      1.187056    -0.000046    -0.000002     1.187054
	   10 R(7,8)          =      1.386785     0.000001     0.000000     1.386785
	   11 R(7,19)         =      1.730478     0.000000    -0.000000     1.730478
	   12 R(8,9)          =      1.384450    -0.000004    -0.000001     1.384449
	   13 R(8,17)         =      1.731415    -0.000001    -0.000000     1.731415
	   14 R(9,10)         =      1.071871    -0.000000    -0.000000     1.071871
	   15 R(11,12)        =      1.081200    -0.000009    -0.000001     1.081199
	   16 R(11,13)        =      1.085793     0.000006     0.000000     1.085793
	   17 R(11,14)        =      1.511379     0.000015     0.000003     1.511382
	   18 R(14,15)        =      1.317917     0.000032     0.000003     1.317920
	   19 R(15,16)        =      0.952894     0.000000     0.000000     0.952894
	   20 B(1,3,2)        =    121.535217     0.000000     0.000075   121.535292
	   21 B(1,3,4)        =    119.113195     0.000000    -0.000021   119.113174
	   22 B(1,9,8)        =    120.461079     0.000000     0.000024   120.461103
	   23 B(1,9,10)       =    119.893227     0.000000     0.000008   119.893235
	   24 B(2,3,4)        =    119.313433    -0.000000    -0.000084   119.313349
	   25 B(2,11,12)      =    111.591156    -0.000000    -0.000505   111.590651
	   26 B(2,11,13)      =    110.830680    -0.000000    -0.000065   110.830615
	   27 B(2,11,14)      =    110.981245    -0.000000    -0.000222   110.981023
	   28 B(3,1,9)        =    120.215140    -0.000000    -0.000007   120.215134
	   29 B(3,1,18)       =    120.450790    -0.000000    -0.000020   120.450770
	   30 B(3,2,11)       =    116.222298     0.000000     0.000271   116.222569
	   31 B(3,4,5)        =    118.929039    -0.000000    -0.000122   118.928917
	   32 B(3,4,7)        =    120.940823    -0.000000     0.000014   120.940838
	   33 B(4,7,8)        =    119.670810    -0.000000    -0.000009   119.670800
	   34 B(4,7,19)       =    118.430282     0.000000     0.000031   118.430313
	   35 B(5,4,7)        =    120.123021     0.000000     0.000106   120.123127
	   36 B(6,14,11)      =    121.447092     0.000000     0.000868   121.447960
	   37 B(6,14,15)      =    123.917362    -0.000000    -0.000380   123.916983
	   38 B(7,8,9)        =    119.597438    -0.000000    -0.000005   119.597433
	   39 B(7,8,17)       =    122.041329    -0.000000    -0.000041   122.041287
	   40 B(8,7,19)       =    121.898710    -0.000000    -0.000022   121.898687
	   41 B(8,9,10)       =    119.645597    -0.000000    -0.000032   119.645564
	   42 B(9,1,18)       =    119.330663     0.000000     0.000025   119.330688
	   43 B(9,8,17)       =    118.360753     0.000000     0.000044   118.360797
	   44 B(11,14,15)     =    114.589417    -0.000000    -0.000504   114.588912
	   45 B(12,11,13)     =    108.396066     0.000000     0.000240   108.396305
	   46 B(12,11,14)     =    107.583676     0.000000     0.000270   107.583946
	   47 B(13,11,14)     =    107.287541     0.000000     0.000332   107.287873
	   48 B(14,15,16)     =    108.044350     0.000000     0.000168   108.044517
	   49 D(1,3,2,11)     =    -90.029431    -0.000000    -0.000790   -90.030222
	   50 D(1,3,4,5)      =   -178.659753     0.000000     0.000523  -178.659231
	   51 D(1,3,4,7)      =      0.370897     0.000000     0.000431     0.371328
	   52 D(1,9,8,7)      =      0.331070     0.000000     0.000343     0.331414
	   53 D(1,9,8,17)     =   -179.915918    -0.000000    -0.000246  -179.916164
	   54 D(2,3,1,9)      =   -178.016513     0.000000     0.000562  -178.015950
	   55 D(2,3,1,18)     =      1.307559     0.000000     0.000479     1.308037
	   56 D(2,3,4,5)      =     -0.871394    -0.000000    -0.000364    -0.871758
	   57 D(2,3,4,7)      =    178.159256    -0.000000    -0.000457   178.158800
	   58 D(2,11,14,6)    =   -163.792445    -0.000000    -0.000913  -163.793359
	   59 D(2,11,14,15)   =     18.585332     0.000000    -0.000488    18.584844
	   60 D(3,1,9,8)      =     -0.069983    -0.000000    -0.000035    -0.070018
	   61 D(3,1,9,10)     =    179.815812     0.000000     0.000036   179.815848
	   62 D(3,2,11,12)    =     64.624002     0.000000     0.001820    64.625822
	   63 D(3,2,11,13)    =    -56.287142     0.000000     0.001903   -56.285238
	   64 D(3,2,11,14)    =   -175.393762    -0.000000     0.001673  -175.392089
	   65 D(3,4,7,8)      =     -0.111958    -0.000000    -0.000126    -0.112084
	   66 D(3,4,7,19)     =   -179.952865     0.000000     0.000083  -179.952783
	   67 D(4,3,1,9)      =     -0.279131    -0.000000    -0.000349    -0.279480
	   68 D(4,3,1,18)     =    179.044940    -0.000000    -0.000433   179.044507
	   69 D(4,3,2,11)     =     92.237616     0.000000     0.000121    92.237737
	   70 D(4,7,8,9)      =     -0.240147    -0.000000    -0.000263    -0.240410
	   71 D(4,7,8,17)     =   -179.983744     0.000000     0.000349  -179.983395
	   72 D(5,4,7,8)      =    178.907183    -0.000000    -0.000221   178.906961
	   73 D(5,4,7,19)     =     -0.933725    -0.000000    -0.000013    -0.933738
	   74 D(6,14,11,12)   =    -41.451401    -0.000000    -0.001498   -41.452899
	   75 D(6,14,11,13)   =     74.993931    -0.000000    -0.000913    74.993018
	   76 D(6,14,15,16)   =      1.244036     0.000000    -0.000006     1.244029
	   77 D(7,8,9,10)     =   -179.555006     0.000000     0.000272  -179.554734
	   78 D(8,9,1,18)     =   -179.401608    -0.000000     0.000048  -179.401560
	   79 D(9,8,7,19)     =    179.595061    -0.000000    -0.000479   179.594583
	   80 D(10,9,1,18)    =      0.484187     0.000000     0.000119     0.484306
	   81 D(10,9,8,17)    =      0.198005    -0.000000    -0.000317     0.197688
	   82 D(11,14,15,16)  =    178.799516    -0.000000    -0.000410   178.799106
	   83 D(12,11,14,15)  =    140.926376    -0.000000    -0.001072   140.925304
	   84 D(13,11,14,15)  =   -102.628292     0.000000    -0.000488  -102.628780
	   85 D(17,8,7,19)    =     -0.148536     0.000000     0.000133    -0.148403
	   86 R(11,18)        =      3.523753     0.000004     0.000013     3.523766
	 ---------------------------------------------------------------------------
	Successfully symmetrized geometry.

  ==> Convergence Check <==

  Measures of convergence in internal coordinates in au.
  Criteria marked as inactive (o), active & met (*), and active & unmet ( ).
  ---------------------------------------------------------------------------------------------
   Step     Total Energy     Delta E     MAX Force     RMS Force      MAX Disp      RMS Disp   
  ---------------------------------------------------------------------------------------------
    Convergence Criteria             o    1.50e-05 *    1.00e-05 *    6.00e-05 *    4.00e-05 *
  ---------------------------------------------------------------------------------------------
      6   -1908.87838746   -1.19e-09 o    5.54e-06 *    1.13e-06 *    3.32e-05 *    8.98e-06 *  ~
  ---------------------------------------------------------------------------------------------


  **** Optimization is complete! (in 6 steps) ****

  ==> Optimization Summary <==

  Measures of convergence in internal coordinates in au.
  --------------------------------------------------------------------------------------------------------------- ~
   Step         Total Energy             Delta E       MAX Force       RMS Force        MAX Disp        RMS Disp  ~
  --------------------------------------------------------------------------------------------------------------- ~
      1   -1908.878387424397  -1908.878387424397      0.00000172      0.00000047      0.00048340      0.00012710  ~
      2   -1908.878387425364     -0.000000000967      0.00000519      0.00000118      0.00747642      0.00177424  ~
      3   -1908.878387374216      0.000000051148      0.00005262      0.00001395      0.00245870      0.00051322  ~
      4   -1908.878387446406     -0.000000072190      0.00004565      0.00000810      0.00197766      0.00051406  ~
      5   -1908.878387455515     -0.000000009109      0.00001067      0.00000232      0.00046280      0.00011820  ~
      6   -1908.878387456709     -0.000000001194      0.00000554      0.00000113      0.00003322      0.00000898  ~
  --------------------------------------------------------------------------------------------------------------- ~

	Writing optimization data to binary file.
	Final energy is  -1908.8783874567089
	Final (previous) structure:
	Cartesian Geometry (in Angstrom)
	    C    -0.3312181643  -1.2103868944   0.2164126541
	    O    -1.0580323310   0.7581189496   1.3647612660
	    C    -0.2205492624   0.1445639461   0.4972475642
	    C     0.7984245114   0.8718798677  -0.0889191310
	    H     0.8943494575   1.9139161039   0.1470702511
	    O    -4.1586985589   2.3384667899   1.6919825971
	    C     1.6971380836   0.2696584416  -0.9515996081
	    C     1.5779984715  -1.0831637991  -1.2324045280
	    C     0.5634950240  -1.8173088134  -0.6420526901
	    H     0.4750403874  -2.8644950230  -0.8529639385
	    C    -2.2297155527   1.3000047161   0.8167786530
	    H    -2.8724128173   0.5305848602   0.4119005767
	    H    -1.9955365738   2.0033680120   0.0234400832
	    C    -3.0199339826   2.0507217785   1.8637954262
	    O    -2.3291151707   2.3897502242   2.9337176026
	    H    -2.9078243508   2.8702944049   3.5186796781
	   CL     2.6682742553  -1.8988183593  -2.3018918825
	   CL    -1.5809143479  -2.1608771401   0.9516329921
	   CL     2.9483460755   1.2413695572  -1.6478824571
	Saving final (previous) structure.
			--------------------------
			 OPTKING Finished Execution 
			--------------------------

    Final optimized geometry and variables:
    Molecular point group: c1
    Full point group: C1

    Geometry (in Angstrom), charge = 0, multiplicity = 1:

    C           -0.331218164292    -1.210386894393     0.216412654113
    O           -1.058032331004     0.758118949585     1.364761265999
    C           -0.220549262391     0.144563946140     0.497247564158
    C            0.798424511380     0.871879867693    -0.088919131027
    H            0.894349457547     1.913916103852     0.147070251063
    O           -4.158698558865     2.338466789881     1.691982597078
    C            1.697138083591     0.269658441558    -0.951599608140
    C            1.577998471531    -1.083163799078    -1.232404527958
    C            0.563495023951    -1.817308813420    -0.642052690096
    H            0.475040387364    -2.864495022984    -0.852963938482
    C           -2.229715552690     1.300004716103     0.816778653038
    H           -2.872412817341     0.530584860219     0.411900576683
    H           -1.995536573844     2.003368012041     0.023440083223
    C           -3.019933982580     2.050721778456     1.863795426208
    O           -2.329115170673     2.389750224168     2.933717602588
    H           -2.907824350756     2.870294404866     3.518679678057
    CL           2.668274255312    -1.898818359331    -2.301891882541
    CL          -1.580914347912    -2.160877140089     0.951632992075
    CL           2.948346075536     1.241369557153    -1.647882457144

	Cleaning optimization helper files.

*** Psi4 exiting successfully. Buy a developer a beer!
