
    -----------------------------------------------------------------------
          Psi4: An Open-Source Ab Initio Electronic Structure Package
                               Psi4 1.2.1 release

                         Git: Rev {HEAD} 406f4de 


    R. M. Parrish, L. A. Burns, D. G. A. Smith, A. C. Simmonett,
    A. E. DePrince III, E. G. Hohenstein, U. Bozkaya, A. Yu. Sokolov,
    R. Di Remigio, R. M. Richard, J. F. Gonthier, A. M. James,
    H. R. McAlexander, A. Kumar, M. Saitow, X. Wang, B. P. Pritchard,
    P. Verma, H. F. Schaefer III, K. Patkowski, R. A. King, E. F. Valeev,
    F. A. Evangelista, J. M. Turney, T. D. Crawford, and C. D. Sherrill,
    J. Chem. Theory Comput. 13(7) pp 3185--3197 (2017).
    (doi: 10.1021/acs.jctc.7b00174)


                         Additional Contributions by
    P. Kraus, H. Kruse, M. H. Lechner, M. C. Schieber, and R. A. Shaw

    -----------------------------------------------------------------------


    Psi4 started on: Thursday, 27 September 2018 12:49PM

    Process ID: 7138
    Host:       wr59
    PSIDATADIR: /usr/local/hpc1/software_molmod/psi4/psi4conda/share/psi4
    Memory:     500.0 MiB
    Threads:    16
    
  ==> Input File <==

--------------------------------------------------------------------------
memory 110 Gb

molecule conf4 {
C     1.251381144312    -0.560982343778    -0.652103421092
O     1.352066294040     1.793580281435    -0.213139632918
C     0.639643440366     0.649864581174    -0.356214545326
C    -0.739268030756     0.703323156542    -0.277314141143
H    -1.210806435335     1.645380979617    -0.075859343719
O     0.688072646708     3.771544436609     2.067241499874
C    -1.507691025358    -0.430777542410    -0.469251807609
C    -0.889715870976    -1.640542100672    -0.747362388132
C     0.490097263286    -1.696875167758    -0.840996113486
H     0.968595506776    -2.628485188017    -1.069018993790
C     1.981461380985     2.041467346266     1.025914531833
H     2.737931114104     2.783487032826     0.830934835085
H     2.430828119818     1.143965524431     1.424099059375
C     0.986519027973     2.626360810964     2.016458089542
O     0.468909910845     1.701466220296     2.815697585219
H    -0.160749504033     2.117201900833     3.398283382466
CL    -1.791273428645    -3.098046848699    -0.994527592096
CL     2.975546055842    -0.663187813395    -0.815940817115
CL    -3.228498730220    -0.288990401012    -0.352208310254
}
set globals {
  reference rhf
  g_convergence gau_tight
  basis 6-31G(d)
}
frequency('hf', dertype=1)
--------------------------------------------------------------------------

  Memory set to 102.445 GiB by Python driver.
gradient() will perform analytic gradient computation.

*** tstart() called on wr59
*** at Thu Sep 27 12:49:09 2018

   => Loading Basis Set <=

    Name: 6-31G(D)
    Role: ORBITAL
    Keyword: BASIS
    atoms 1, 3-4, 7-9, 11, 14 entry C          line   111 file /usr/local/hpc1/software_molmod/psi4/psi4conda/share/psi4/basis/6-31g_d_.gbs 
    atoms 2, 6, 15            entry O          line   145 file /usr/local/hpc1/software_molmod/psi4/psi4conda/share/psi4/basis/6-31g_d_.gbs 
    atoms 5, 10, 12-13, 16    entry H          line    44 file /usr/local/hpc1/software_molmod/psi4/psi4conda/share/psi4/basis/6-31g_d_.gbs 
    atoms 17-19               entry CL         line   340 file /usr/local/hpc1/software_molmod/psi4/psi4conda/share/psi4/basis/6-31g_d_.gbs 

    There are an even number of electrons - assuming singlet.
    Specify the multiplicity in the molecule input block.


         ---------------------------------------------------------
                                   SCF
            by Justin Turney, Rob Parrish, Andy Simmonett
                             and Daniel Smith
                              RHF Reference
                       16 Threads, 104904 MiB Core
         ---------------------------------------------------------

  ==> Geometry <==

    Molecular point group: c1
    Full point group: C1

    Geometry (in Angstrom), charge = 0, multiplicity = 1:

       Center              X                  Y                   Z               Mass       
    ------------   -----------------  -----------------  -----------------  -----------------
         C            1.251381144312    -0.560982343778    -0.652103421092    12.000000000000
         O            1.352066294040     1.793580281435    -0.213139632918    15.994914619560
         C            0.639643440366     0.649864581174    -0.356214545326    12.000000000000
         C           -0.739268030756     0.703323156542    -0.277314141143    12.000000000000
         H           -1.210806435335     1.645380979617    -0.075859343719     1.007825032070
         O            0.688072646708     3.771544436609     2.067241499874    15.994914619560
         C           -1.507691025358    -0.430777542410    -0.469251807609    12.000000000000
         C           -0.889715870976    -1.640542100672    -0.747362388132    12.000000000000
         C            0.490097263286    -1.696875167758    -0.840996113486    12.000000000000
         H            0.968595506776    -2.628485188017    -1.069018993790     1.007825032070
         C            1.981461380985     2.041467346266     1.025914531833    12.000000000000
         H            2.737931114104     2.783487032826     0.830934835085     1.007825032070
         H            2.430828119818     1.143965524431     1.424099059375     1.007825032070
         C            0.986519027973     2.626360810964     2.016458089542    12.000000000000
         O            0.468909910845     1.701466220296     2.815697585219    15.994914619560
         H           -0.160749504033     2.117201900833     3.398283382466     1.007825032070
         CL          -1.791273428645    -3.098046848699    -0.994527592096    34.968852682000
         CL           2.975546055842    -0.663187813395    -0.815940817115    34.968852682000
         CL          -3.228498730220    -0.288990401012    -0.352208310254    34.968852682000

  Running in c1 symmetry.

  Rotational constants: A =      0.02088  B =      0.01097  C =      0.00781 [cm^-1]
  Rotational constants: A =    625.96009  B =    328.78484  C =    234.25740 [MHz]
  Nuclear repulsion = 1194.267724238978872

  Charge       = 0
  Multiplicity = 1
  Electrons    = 128
  Nalpha       = 64
  Nbeta        = 64

  ==> Algorithm <==

  SCF Algorithm Type is DF.
  DIIS enabled.
  MOM disabled.
  Fractional occupation disabled.
  Guess Type is SAD.
  Energy threshold   = 1.00e-08
  Density threshold  = 1.00e-08
  Integral threshold = 0.00e+00

  ==> Primary Basis <==

  Basis Set: 6-31G(D)
    Blend: 6-31G(D)
    Number of shells: 100
    Number of basis function: 232
    Number of Cartesian functions: 232
    Spherical Harmonics?: false
    Max angular momentum: 2

   => Loading Basis Set <=

    Name: (6-31G(D) AUX)
    Role: JKFIT
    Keyword: DF_BASIS_SCF
    atoms 1, 3-4, 7-9, 11, 14 entry C          line   121 file /usr/local/hpc1/software_molmod/psi4/psi4conda/share/psi4/basis/cc-pvdz-jkfit.gbs 
    atoms 2, 6, 15            entry O          line   221 file /usr/local/hpc1/software_molmod/psi4/psi4conda/share/psi4/basis/cc-pvdz-jkfit.gbs 
    atoms 5, 10, 12-13, 16    entry H          line    51 file /usr/local/hpc1/software_molmod/psi4/psi4conda/share/psi4/basis/cc-pvdz-jkfit.gbs 
    atoms 17-19               entry CL         line   667 file /usr/local/hpc1/software_molmod/psi4/psi4conda/share/psi4/basis/cc-pvdz-jkfit.gbs 

  ==> Pre-Iterations <==

   -------------------------------------------------------
    Irrep   Nso     Nmo     Nalpha   Nbeta   Ndocc  Nsocc
   -------------------------------------------------------
     A        232     232       0       0       0       0
   -------------------------------------------------------
    Total     232     232      64      64      64       0
   -------------------------------------------------------

  ==> Integral Setup <==

  ==> DiskDFJK: Density-Fitted J/K Matrices <==

    J tasked:                  Yes
    K tasked:                  Yes
    wK tasked:                  No
    OpenMP threads:             16
    Integrals threads:          16
    Memory (MB):             78678
    Algorithm:                Core
    Integral Cache:           NONE
    Schwarz Cutoff:          1E-12
    Fitting Condition:       1E-12

   => Auxiliary Basis Set <=

  Basis Set: (6-31G(D) AUX)
    Blend: CC-PVDZ-JKFIT
    Number of shells: 417
    Number of basis function: 1406
    Number of Cartesian functions: 1406
    Spherical Harmonics?: false
    Max angular momentum: 3

  Minimum eigenvalue in the overlap matrix is 3.6715469506E-04.
  Using Symmetric Orthogonalization.

  SCF Guess: Superposition of Atomic Densities via on-the-fly atomic UHF.

  ==> Iterations <==

                           Total Energy        Delta E     RMS |[F,P]|

   @DF-RHF iter   0: -1917.34781572300676   -1.91735e+03   1.19643e-01 
   @DF-RHF iter   1: -1908.45433888899061    8.89348e+00   1.41487e-02 
   @DF-RHF iter   2: -1908.75227330123039   -2.97934e-01   8.57041e-03 DIIS
   @DF-RHF iter   3: -1908.86523620598746   -1.12963e-01   1.68211e-03 DIIS
   @DF-RHF iter   4: -1908.87357479362254   -8.33859e-03   6.49805e-04 DIIS
   @DF-RHF iter   5: -1908.87472448053472   -1.14969e-03   2.30862e-04 DIIS
   @DF-RHF iter   6: -1908.87493903589370   -2.14555e-04   9.42555e-05 DIIS
   @DF-RHF iter   7: -1908.87498036056559   -4.13247e-05   2.92375e-05 DIIS
   @DF-RHF iter   8: -1908.87498529161098   -4.93105e-06   1.43870e-05 DIIS
   @DF-RHF iter   9: -1908.87498637395902   -1.08235e-06   5.87125e-06 DIIS
   @DF-RHF iter  10: -1908.87498660637539   -2.32416e-07   2.25813e-06 DIIS
   @DF-RHF iter  11: -1908.87498664189161   -3.55162e-08   9.88508e-07 DIIS
   @DF-RHF iter  12: -1908.87498664742043   -5.52882e-09   4.37350e-07 DIIS
   @DF-RHF iter  13: -1908.87498664838540   -9.64974e-10   1.54061e-07 DIIS
   @DF-RHF iter  14: -1908.87498664853592   -1.50521e-10   6.25177e-08 DIIS
   @DF-RHF iter  15: -1908.87498664855207   -1.61435e-11   2.40012e-08 DIIS
   @DF-RHF iter  16: -1908.87498664855502   -2.95586e-12   1.04020e-08 DIIS
   @DF-RHF iter  17: -1908.87498664855798   -2.95586e-12   3.82965e-09 DIIS

  ==> Post-Iterations <==

    Orbital Energies [Eh]
    ---------------------

    Doubly Occupied:                                                      

       1A   -104.850650     2A   -104.847568     3A   -104.846768  
       4A    -20.637211     5A    -20.619770     6A    -20.575263  
       7A    -11.402481     8A    -11.338405     9A    -11.336722  
      10A    -11.333618    11A    -11.329592    12A    -11.321005  
      13A    -11.284063    14A    -11.275495    15A    -10.583696  
      16A    -10.580836    17A    -10.579988    18A     -8.053140  
      19A     -8.050280    20A     -8.049692    21A     -8.049632  
      22A     -8.049435    23A     -8.046749    24A     -8.046726  
      25A     -8.045898    26A     -8.045893    27A     -1.500061  
      28A     -1.447850    29A     -1.390599    30A     -1.244664  
      31A     -1.187700    32A     -1.154615    33A     -1.115296  
      34A     -1.054775    35A     -1.021608    36A     -0.983076  
      37A     -0.884306    38A     -0.870405    39A     -0.816899  
      40A     -0.747690    41A     -0.738654    42A     -0.722419  
      43A     -0.704371    44A     -0.692461    45A     -0.677042  
      46A     -0.650197    47A     -0.634922    48A     -0.617582  
      49A     -0.609784    50A     -0.594954    51A     -0.575873  
      52A     -0.564918    53A     -0.548917    54A     -0.530848  
      55A     -0.514072    56A     -0.501569    57A     -0.498562  
      58A     -0.486061    59A     -0.475824    60A     -0.461136  
      61A     -0.457944    62A     -0.452118    63A     -0.366545  
      64A     -0.346737  

    Virtual:                                                              

      65A      0.096037    66A      0.103979    67A      0.147604  
      68A      0.157502    69A      0.202854    70A      0.214860  
      71A      0.234573    72A      0.271292    73A      0.278385  
      74A      0.288783    75A      0.300509    76A      0.322295  
      77A      0.343817    78A      0.367286    79A      0.398030  
      80A      0.424390    81A      0.433082    82A      0.453348  
      83A      0.473349    84A      0.485321    85A      0.505187  
      86A      0.525088    87A      0.541835    88A      0.565440  
      89A      0.583581    90A      0.597667    91A      0.602182  
      92A      0.615650    93A      0.626066    94A      0.640178  
      95A      0.651916    96A      0.663336    97A      0.670462  
      98A      0.679759    99A      0.704695   100A      0.710523  
     101A      0.736143   102A      0.752749   103A      0.775985  
     104A      0.781616   105A      0.806597   106A      0.818451  
     107A      0.824402   108A      0.843470   109A      0.852645  
     110A      0.872876   111A      0.884677   112A      0.892319  
     113A      0.938741   114A      0.954307   115A      0.958744  
     116A      0.974974   117A      1.000992   118A      1.007550  
     119A      1.032812   120A      1.042063   121A      1.046465  
     122A      1.072136   123A      1.073766   124A      1.101737  
     125A      1.111929   126A      1.114564   127A      1.119250  
     128A      1.125262   129A      1.129634   130A      1.134650  
     131A      1.141383   132A      1.141986   133A      1.172286  
     134A      1.188488   135A      1.193746   136A      1.212027  
     137A      1.223285   138A      1.238451   139A      1.253088  
     140A      1.264605   141A      1.276937   142A      1.291181  
     143A      1.325339   144A      1.327542   145A      1.335243  
     146A      1.342780   147A      1.373814   148A      1.408806  
     149A      1.417563   150A      1.431585   151A      1.448610  
     152A      1.454262   153A      1.474204   154A      1.528059  
     155A      1.552968   156A      1.588574   157A      1.626287  
     158A      1.635149   159A      1.672665   160A      1.675939  
     161A      1.686403   162A      1.739242   163A      1.751342  
     164A      1.782386   165A      1.792155   166A      1.805531  
     167A      1.824282   168A      1.871121   169A      1.909660  
     170A      1.941549   171A      1.979980   172A      2.019272  
     173A      2.035691   174A      2.070460   175A      2.085240  
     176A      2.104934   177A      2.129811   178A      2.149489  
     179A      2.178738   180A      2.201984   181A      2.226001  
     182A      2.244280   183A      2.273719   184A      2.307097  
     185A      2.320341   186A      2.343629   187A      2.382639  
     188A      2.413888   189A      2.417324   190A      2.438635  
     191A      2.452765   192A      2.504589   193A      2.522526  
     194A      2.579009   195A      2.585475   196A      2.595641  
     197A      2.613524   198A      2.677447   199A      2.748180  
     200A      2.833521   201A      2.865008   202A      2.879636  
     203A      2.886251   204A      2.976045   205A      2.996941  
     206A      3.026420   207A      3.069515   208A      3.073129  
     209A      3.103081   210A      3.112750   211A      3.185143  
     212A      3.188072   213A      3.246532   214A      3.355204  
     215A      3.386907   216A      3.459472   217A      3.493062  
     218A      3.709848   219A      4.256561   220A      4.424164  
     221A      4.450462   222A      4.484549   223A      4.510250  
     224A      4.592016   225A      4.609975   226A      4.676407  
     227A      4.726105   228A      4.747441   229A      4.796904  
     230A      4.871426   231A      4.942645   232A      5.147842  

    Final Occupation by Irrep:
              A 
    DOCC [    64 ]

  Energy converged.

  @DF-RHF Final Energy: -1908.87498664855798

   => Energetics <=

    Nuclear Repulsion Energy =           1194.2677242389788717
    One-Electron Energy =               -5006.2381633269615122
    Two-Electron Energy =                1903.0954524394244345
    Total Energy =                      -1908.8749866485579787



Properties will be evaluated at   0.000000,   0.000000,   0.000000 [a0]

Properties computed using the SCF density matrix

  Nuclear Dipole Moment: [e a0]
     X:     6.3512      Y:     8.4877      Z:     6.2287

  Electronic Dipole Moment: [e a0]
     X:    -5.9164      Y:    -8.8049      Z:    -5.5277

  Dipole Moment: [e a0]
     X:     0.4348      Y:    -0.3172      Z:     0.7010     Total:     0.8838

  Dipole Moment: [D]
     X:     1.1053      Y:    -0.8062      Z:     1.7818     Total:     2.2464


*** tstop() called on wr59 at Thu Sep 27 12:49:16 2018
Module time:
	user time   =      89.17 seconds =       1.49 minutes
	system time =       2.62 seconds =       0.04 minutes
	total time  =          7 seconds =       0.12 minutes
Total time:
	user time   =      89.17 seconds =       1.49 minutes
	system time =       2.62 seconds =       0.04 minutes
	total time  =          7 seconds =       0.12 minutes

*** tstart() called on wr59
*** at Thu Sep 27 12:49:16 2018


         ------------------------------------------------------------
                                   SCF GRAD                          
                          Rob Parrish, Justin Turney,                
                       Andy Simmonett, and Alex Sokolov              
         ------------------------------------------------------------

  ==> Geometry <==

    Molecular point group: c1
    Full point group: C1

    Geometry (in Angstrom), charge = 0, multiplicity = 1:

       Center              X                  Y                   Z               Mass       
    ------------   -----------------  -----------------  -----------------  -----------------
         C            1.251381144312    -0.560982343778    -0.652103421092    12.000000000000
         O            1.352066294040     1.793580281435    -0.213139632918    15.994914619560
         C            0.639643440366     0.649864581174    -0.356214545326    12.000000000000
         C           -0.739268030756     0.703323156542    -0.277314141143    12.000000000000
         H           -1.210806435335     1.645380979617    -0.075859343719     1.007825032070
         O            0.688072646708     3.771544436609     2.067241499874    15.994914619560
         C           -1.507691025358    -0.430777542410    -0.469251807609    12.000000000000
         C           -0.889715870976    -1.640542100672    -0.747362388132    12.000000000000
         C            0.490097263286    -1.696875167758    -0.840996113486    12.000000000000
         H            0.968595506776    -2.628485188017    -1.069018993790     1.007825032070
         C            1.981461380985     2.041467346266     1.025914531833    12.000000000000
         H            2.737931114104     2.783487032826     0.830934835085     1.007825032070
         H            2.430828119818     1.143965524431     1.424099059375     1.007825032070
         C            0.986519027973     2.626360810964     2.016458089542    12.000000000000
         O            0.468909910845     1.701466220296     2.815697585219    15.994914619560
         H           -0.160749504033     2.117201900833     3.398283382466     1.007825032070
         CL          -1.791273428645    -3.098046848699    -0.994527592096    34.968852682000
         CL           2.975546055842    -0.663187813395    -0.815940817115    34.968852682000
         CL          -3.228498730220    -0.288990401012    -0.352208310254    34.968852682000

  Nuclear repulsion = 1194.267724238978872

  ==> Basis Set <==

  Basis Set: 6-31G(D)
    Blend: 6-31G(D)
    Number of shells: 100
    Number of basis function: 232
    Number of Cartesian functions: 232
    Spherical Harmonics?: false
    Max angular momentum: 2

  ==> DFJKGrad: Density-Fitted SCF Gradients <==

    Gradient:                    1
    J tasked:                  Yes
    K tasked:                  Yes
    wK tasked:                  No
    OpenMP threads:             16
    Integrals threads:          16
    Memory (MB):             78678
    Schwarz Cutoff:          0E+00
    Fitting Condition:       1E-12

   => Auxiliary Basis Set <=

  Basis Set: (6-31G(D) AUX)
    Blend: CC-PVDZ-JKFIT
    Number of shells: 417
    Number of basis function: 1406
    Number of Cartesian functions: 1406
    Spherical Harmonics?: false
    Max angular momentum: 3


  -Total Gradient:
     Atom            X                  Y                   Z
    ------   -----------------  -----------------  -----------------
       1        0.000000269771     0.000000306189    -0.000000737108
       2        0.000000016440    -0.000000206996     0.000000254385
       3       -0.000000580692     0.000000327881    -0.000001319177
       4        0.000001195033     0.000000648826     0.000001524069
       5        0.000000080131    -0.000000052253     0.000000133804
       6        0.000001111340    -0.000002769942    -0.000001504457
       7       -0.000000456294    -0.000000254064    -0.000001914068
       8       -0.000001130636     0.000000533320    -0.000001287765
       9        0.000000750792    -0.000000418106     0.000000742735
      10        0.000000217173    -0.000000269011     0.000000144846
      11       -0.000000068769    -0.000000220198     0.000000101893
      12       -0.000000090314    -0.000000045388     0.000000175142
      13       -0.000000325886    -0.000000316909    -0.000000115673
      14       -0.000001226942     0.000006205320     0.000001229062
      15        0.000000008118    -0.000002819739     0.000001097810
      16        0.000000333428     0.000000062832    -0.000000479455
      17       -0.000000001622    -0.000000239403     0.000000743788
      18        0.000000078484    -0.000000224592     0.000000395882
      19       -0.000000179556    -0.000000247779     0.000000814305


*** tstop() called on wr59 at Thu Sep 27 12:49:20 2018
Module time:
	user time   =      62.96 seconds =       1.05 minutes
	system time =       1.25 seconds =       0.02 minutes
	total time  =          4 seconds =       0.07 minutes
Total time:
	user time   =     152.17 seconds =       2.54 minutes
	system time =       3.87 seconds =       0.06 minutes
	total time  =         11 seconds =       0.18 minutes

  Based on options and gradient (rms=2.31E-06), recommend projecting translations and projecting rotations.
hessian() will perform frequency computation by finite difference of analytic gradients.

-------------------------------------------------------------

  Using finite-differences of gradients to determine vibrational frequencies and 
  normal modes.  Resulting frequencies are only valid at stationary points.
	Generating geometries for use with 3-point formula.
	Displacement size will be 5.00e-03.
	Number of atoms is 19.
	Number of irreps is 1.
	Number of SALCS is 51.
	Translations projected? 1. Rotations projected? 1.
	Index of salcs per irrep:
	 1 :  0  1  2  3  4  5  6  7  8  9  10  11  12  13  14  15  16  17  18  19  20  21  22  23  24  25  26  27  28  29  30  31  32  33  34  35  36  37  38  39  40  41  42  43  44  45  46  47  48  49  50 
	Number of SALC's per irrep:
		 Irrep 1: 51
	Number of geometries (including reference) is 103.
	Number of displacements per irrep:
	  Irrep 1: 102

  //>>>>>>>>>>>>>>>>>>>>>>>>>>>>>>>>>>>//
  //   Loading displacement 1 of 103   //
  //<<<<<<<<<<<<<<<<<<<<<<<<<<<<<<<<<<<//
gradient() will perform analytic gradient computation.

*** tstart() called on wr59
*** at Thu Sep 27 12:49:20 2018

   => Loading Basis Set <=

    Name: 6-31G(D)
    Role: ORBITAL
    Keyword: BASIS
    atoms 1, 3-4, 7-9, 11, 14 entry C          line   111 file /usr/local/hpc1/software_molmod/psi4/psi4conda/share/psi4/basis/6-31g_d_.gbs 
    atoms 2, 6, 15            entry O          line   145 file /usr/local/hpc1/software_molmod/psi4/psi4conda/share/psi4/basis/6-31g_d_.gbs 
    atoms 5, 10, 12-13, 16    entry H          line    44 file /usr/local/hpc1/software_molmod/psi4/psi4conda/share/psi4/basis/6-31g_d_.gbs 
    atoms 17-19               entry CL         line   340 file /usr/local/hpc1/software_molmod/psi4/psi4conda/share/psi4/basis/6-31g_d_.gbs 


         ---------------------------------------------------------
                                   SCF
            by Justin Turney, Rob Parrish, Andy Simmonett
                             and Daniel Smith
                              RHF Reference
                       16 Threads, 104904 MiB Core
         ---------------------------------------------------------

  ==> Geometry <==

    Molecular point group: c1
    Full point group: C1

    Geometry (in Angstrom), charge = 0, multiplicity = 1:

       Center              X                  Y                   Z               Mass       
    ------------   -----------------  -----------------  -----------------  -----------------
         C            1.250637475764    -0.560980878269    -0.652097507103    12.000000000000
         O            1.352101246471     1.793582354552    -0.213135634311    15.994914619560
         C            0.639680938364     0.649865307458    -0.356212455691    12.000000000000
         C           -0.739230960759     0.703321630566    -0.277318005503    12.000000000000
         H           -1.210771819850     1.645378857305    -0.075866164643     1.007825032070
         O            0.688094497280     3.771547659646     2.067240686105    15.994914619560
         C           -1.507651216950    -0.430780558571    -0.469257830161    12.000000000000
         C           -0.889672827500    -1.640544349349    -0.747364560717    12.000000000000
         C            0.490140802670    -1.696875177332    -0.840992325354    12.000000000000
         H            0.968641596703    -2.628484615964    -1.069012229721     1.007825032070
         C            1.981490612154     2.041471717973     1.025920976777    12.000000000000
         H            2.737959925348     2.783492488963     0.830943777765     1.007825032070
         H            2.430857164168     1.143971052515     1.424108321607     1.007825032070
         C            0.986543031654     2.626364487885     2.016459694040    12.000000000000
         O            0.468932057791     1.701469818676     2.815697896356    15.994914619560
         H           -0.160730552875     2.117205015377     3.398280584859     1.007825032070
         CL          -1.791226863750    -3.098050867640    -0.994532170331    34.968852682000
         CL           2.975587740685    -0.663183596653    -0.815927423126    34.968852682000
         CL          -3.228459662346    -0.288996209359    -0.352221837881    34.968852682000

  Running in c1 symmetry.

  Rotational constants: A =      0.02088  B =      0.01097  C =      0.00781 [cm^-1]
  Rotational constants: A =    625.97736  B =    328.78506  C =    234.25998 [MHz]
  Nuclear repulsion = 1194.272016039620439

  Charge       = 0
  Multiplicity = 1
  Electrons    = 128
  Nalpha       = 64
  Nbeta        = 64

  ==> Algorithm <==

  SCF Algorithm Type is DF.
  DIIS enabled.
  MOM disabled.
  Fractional occupation disabled.
  Guess Type is SAD.
  Energy threshold   = 1.00e-08
  Density threshold  = 1.00e-08
  Integral threshold = 0.00e+00

  ==> Primary Basis <==

  Basis Set: 6-31G(D)
    Blend: 6-31G(D)
    Number of shells: 100
    Number of basis function: 232
    Number of Cartesian functions: 232
    Spherical Harmonics?: false
    Max angular momentum: 2

   => Loading Basis Set <=

    Name: (6-31G(D) AUX)
    Role: JKFIT
    Keyword: DF_BASIS_SCF
    atoms 1, 3-4, 7-9, 11, 14 entry C          line   121 file /usr/local/hpc1/software_molmod/psi4/psi4conda/share/psi4/basis/cc-pvdz-jkfit.gbs 
    atoms 2, 6, 15            entry O          line   221 file /usr/local/hpc1/software_molmod/psi4/psi4conda/share/psi4/basis/cc-pvdz-jkfit.gbs 
    atoms 5, 10, 12-13, 16    entry H          line    51 file /usr/local/hpc1/software_molmod/psi4/psi4conda/share/psi4/basis/cc-pvdz-jkfit.gbs 
    atoms 17-19               entry CL         line   667 file /usr/local/hpc1/software_molmod/psi4/psi4conda/share/psi4/basis/cc-pvdz-jkfit.gbs 

  ==> Pre-Iterations <==

   -------------------------------------------------------
    Irrep   Nso     Nmo     Nalpha   Nbeta   Ndocc  Nsocc
   -------------------------------------------------------
     A        232     232       0       0       0       0
   -------------------------------------------------------
    Total     232     232      64      64      64       0
   -------------------------------------------------------

  ==> Integral Setup <==

  ==> DiskDFJK: Density-Fitted J/K Matrices <==

    J tasked:                  Yes
    K tasked:                  Yes
    wK tasked:                  No
    OpenMP threads:             16
    Integrals threads:          16
    Memory (MB):             78678
    Algorithm:                Core
    Integral Cache:           NONE
    Schwarz Cutoff:          1E-12
    Fitting Condition:       1E-12

   => Auxiliary Basis Set <=

  Basis Set: (6-31G(D) AUX)
    Blend: CC-PVDZ-JKFIT
    Number of shells: 417
    Number of basis function: 1406
    Number of Cartesian functions: 1406
    Spherical Harmonics?: false
    Max angular momentum: 3

  Minimum eigenvalue in the overlap matrix is 3.6675678894E-04.
  Using Symmetric Orthogonalization.

  SCF Guess: Superposition of Atomic Densities via on-the-fly atomic UHF.

  ==> Iterations <==

                           Total Energy        Delta E     RMS |[F,P]|

   @DF-RHF iter   0: -1913.86868579676752   -1.91387e+03   1.09169e-01 
   @DF-RHF iter   1: -1908.45114849748779    5.41754e+00   1.40103e-02 
   @DF-RHF iter   2: -1908.75664861648761   -3.05500e-01   8.36062e-03 DIIS
   @DF-RHF iter   3: -1908.85749068300765   -1.00842e-01   2.29359e-03 DIIS
   @DF-RHF iter   4: -1908.87280733482726   -1.53167e-02   7.15602e-04 DIIS
   @DF-RHF iter   5: -1908.87447235999184   -1.66503e-03   2.76061e-04 DIIS
   @DF-RHF iter   6: -1908.87487600987834   -4.03650e-04   1.19052e-04 DIIS
   @DF-RHF iter   7: -1908.87496778521313   -9.17753e-05   4.42665e-05 DIIS
   @DF-RHF iter   8: -1908.87498288486108   -1.50996e-05   1.83650e-05 DIIS
   @DF-RHF iter   9: -1908.87498551819317   -2.63333e-06   7.36323e-06 DIIS
   @DF-RHF iter  10: -1908.87498589276288   -3.74570e-07   3.22320e-06 DIIS
   @DF-RHF iter  11: -1908.87498594443196   -5.16691e-08   8.79302e-07 DIIS
   @DF-RHF iter  12: -1908.87498594819249   -3.76053e-09   3.12411e-07 DIIS
   @DF-RHF iter  13: -1908.87498594858153   -3.89036e-10   1.43055e-07 DIIS
   @DF-RHF iter  14: -1908.87498594866133   -7.98082e-11   4.43351e-08 DIIS
   @DF-RHF iter  15: -1908.87498594867316   -1.18234e-11   1.33848e-08 DIIS
   @DF-RHF iter  16: -1908.87498594867270    4.54747e-13   6.13837e-09 DIIS

  ==> Post-Iterations <==

    Orbital Energies [Eh]
    ---------------------

    Doubly Occupied:                                                      

       1A   -104.850567     2A   -104.847582     3A   -104.846784  
       4A    -20.637220     5A    -20.619801     6A    -20.575271  
       7A    -11.402489     8A    -11.338402     9A    -11.336737  
      10A    -11.333644    11A    -11.329585    12A    -11.321012  
      13A    -11.284055    14A    -11.275519    15A    -10.583603  
      16A    -10.580849    17A    -10.580005    18A     -8.053045  
      19A     -8.050294    20A     -8.049599    21A     -8.049539  
      22A     -8.049452    23A     -8.046762    24A     -8.046739  
      25A     -8.045915    26A     -8.045910    27A     -1.500069  
      28A     -1.447871    29A     -1.390606    30A     -1.244715  
      31A     -1.187592    32A     -1.154636    33A     -1.115266  
      34A     -1.054827    35A     -1.021640    36A     -0.983131  
      37A     -0.884367    38A     -0.870427    39A     -0.816923  
      40A     -0.747715    41A     -0.738693    42A     -0.722435  
      43A     -0.704397    44A     -0.692479    45A     -0.677025  
      46A     -0.650287    47A     -0.634935    48A     -0.617593  
      49A     -0.609692    50A     -0.594989    51A     -0.575900  
      52A     -0.564835    53A     -0.548930    54A     -0.530770  
      55A     -0.514077    56A     -0.501583    57A     -0.498571  
      58A     -0.486065    59A     -0.475786    60A     -0.461152  
      61A     -0.457964    62A     -0.452137    63A     -0.366596  
      64A     -0.346805  

    Virtual:                                                              

      65A      0.096073    66A      0.103952    67A      0.147523  
      68A      0.157491    69A      0.202716    70A      0.214853  
      71A      0.234557    72A      0.271296    73A      0.278369  
      74A      0.288785    75A      0.300494    76A      0.322350  
      77A      0.343818    78A      0.367294    79A      0.398028  
      80A      0.424444    81A      0.433118    82A      0.453394  
      83A      0.473379    84A      0.485331    85A      0.505196  
      86A      0.525144    87A      0.541833    88A      0.565511  
      89A      0.583609    90A      0.597652    91A      0.602187  
      92A      0.615645    93A      0.626055    94A      0.640226  
      95A      0.651912    96A      0.663316    97A      0.670471  
      98A      0.679784    99A      0.704660   100A      0.710466  
     101A      0.736107   102A      0.752736   103A      0.775968  
     104A      0.781590   105A      0.806588   106A      0.818439  
     107A      0.824396   108A      0.843486   109A      0.852622  
     110A      0.872868   111A      0.884666   112A      0.892370  
     113A      0.938718   114A      0.954302   115A      0.958756  
     116A      0.974951   117A      1.000971   118A      1.007545  
     119A      1.032812   120A      1.042068   121A      1.046472  
     122A      1.072122   123A      1.073761   124A      1.101753  
     125A      1.111926   126A      1.114588   127A      1.119242  
     128A      1.125266   129A      1.129634   130A      1.134694  
     131A      1.141374   132A      1.142014   133A      1.172349  
     134A      1.188504   135A      1.193755   136A      1.212006  
     137A      1.223255   138A      1.238488   139A      1.253108  
     140A      1.264651   141A      1.276921   142A      1.291074  
     143A      1.325267   144A      1.327541   145A      1.335245  
     146A      1.342752   147A      1.373846   148A      1.408761  
     149A      1.417487   150A      1.431557   151A      1.448598  
     152A      1.454347   153A      1.474231   154A      1.528082  
     155A      1.552953   156A      1.588568   157A      1.626279  
     158A      1.635137   159A      1.672657   160A      1.676008  
     161A      1.686333   162A      1.739230   163A      1.751322  
     164A      1.782383   165A      1.792111   166A      1.805502  
     167A      1.824264   168A      1.871086   169A      1.909659  
     170A      1.941648   171A      1.979988   172A      2.019354  
     173A      2.035696   174A      2.070653   175A      2.085220  
     176A      2.104980   177A      2.129842   178A      2.149492  
     179A      2.178561   180A      2.201931   181A      2.225915  
     182A      2.244215   183A      2.273818   184A      2.307058  
     185A      2.320334   186A      2.343706   187A      2.382766  
     188A      2.413888   189A      2.417459   190A      2.438743  
     191A      2.452796   192A      2.504636   193A      2.522525  
     194A      2.579209   195A      2.585540   196A      2.595612  
     197A      2.613576   198A      2.677429   199A      2.748203  
     200A      2.833493   201A      2.865037   202A      2.879721  
     203A      2.886325   204A      2.976246   205A      2.996990  
     206A      3.026449   207A      3.069723   208A      3.073333  
     209A      3.103420   210A      3.112762   211A      3.185074  
     212A      3.188082   213A      3.246525   214A      3.355215  
     215A      3.386881   216A      3.459500   217A      3.493211  
     218A      3.710140   219A      4.256577   220A      4.424150  
     221A      4.450644   222A      4.484609   223A      4.510262  
     224A      4.592087   225A      4.609971   226A      4.676419  
     227A      4.726108   228A      4.747471   229A      4.796809  
     230A      4.871508   231A      4.942644   232A      5.148108  

    Final Occupation by Irrep:
              A 
    DOCC [    64 ]

  Energy converged.

  @DF-RHF Final Energy: -1908.87498594867270

   => Energetics <=

    Nuclear Repulsion Energy =           1194.2720160396204392
    One-Electron Energy =               -5006.2462843179519041
    Two-Electron Energy =                1903.0992823296589904
    Total Energy =                      -1908.8749859486727019



Properties will be evaluated at   0.000000,   0.000000,   0.000000 [a0]

Properties computed using the SCF density matrix

  Nuclear Dipole Moment: [e a0]
     X:     6.3512      Y:     8.4877      Z:     6.2288

  Electronic Dipole Moment: [e a0]
     X:    -5.9180      Y:    -8.8048      Z:    -5.5275

  Dipole Moment: [e a0]
     X:     0.4333      Y:    -0.3171      Z:     0.7013     Total:     0.8832

  Dipole Moment: [D]
     X:     1.1013      Y:    -0.8061      Z:     1.7824     Total:     2.2449


*** tstop() called on wr59 at Thu Sep 27 12:49:29 2018
Module time:
	user time   =     105.41 seconds =       1.76 minutes
	system time =       2.71 seconds =       0.05 minutes
	total time  =          9 seconds =       0.15 minutes
Total time:
	user time   =     257.93 seconds =       4.30 minutes
	system time =       6.61 seconds =       0.11 minutes
	total time  =         20 seconds =       0.33 minutes

*** tstart() called on wr59
*** at Thu Sep 27 12:49:29 2018


         ------------------------------------------------------------
                                   SCF GRAD                          
                          Rob Parrish, Justin Turney,                
                       Andy Simmonett, and Alex Sokolov              
         ------------------------------------------------------------

  ==> Geometry <==

    Molecular point group: c1
    Full point group: C1

    Geometry (in Angstrom), charge = 0, multiplicity = 1:

       Center              X                  Y                   Z               Mass       
    ------------   -----------------  -----------------  -----------------  -----------------
         C            1.250637475764    -0.560980878269    -0.652097507103    12.000000000000
         O            1.352101246471     1.793582354552    -0.213135634311    15.994914619560
         C            0.639680938364     0.649865307458    -0.356212455691    12.000000000000
         C           -0.739230960759     0.703321630566    -0.277318005503    12.000000000000
         H           -1.210771819850     1.645378857305    -0.075866164643     1.007825032070
         O            0.688094497280     3.771547659646     2.067240686105    15.994914619560
         C           -1.507651216950    -0.430780558571    -0.469257830161    12.000000000000
         C           -0.889672827500    -1.640544349349    -0.747364560717    12.000000000000
         C            0.490140802670    -1.696875177332    -0.840992325354    12.000000000000
         H            0.968641596703    -2.628484615964    -1.069012229721     1.007825032070
         C            1.981490612154     2.041471717973     1.025920976777    12.000000000000
         H            2.737959925348     2.783492488963     0.830943777765     1.007825032070
         H            2.430857164168     1.143971052515     1.424108321607     1.007825032070
         C            0.986543031654     2.626364487885     2.016459694040    12.000000000000
         O            0.468932057791     1.701469818676     2.815697896356    15.994914619560
         H           -0.160730552875     2.117205015377     3.398280584859     1.007825032070
         CL          -1.791226863750    -3.098050867640    -0.994532170331    34.968852682000
         CL           2.975587740685    -0.663183596653    -0.815927423126    34.968852682000
         CL          -3.228459662346    -0.288996209359    -0.352221837881    34.968852682000

  Nuclear repulsion = 1194.272016039620439

  ==> Basis Set <==

  Basis Set: 6-31G(D)
    Blend: 6-31G(D)
    Number of shells: 100
    Number of basis function: 232
    Number of Cartesian functions: 232
    Spherical Harmonics?: false
    Max angular momentum: 2

  ==> DFJKGrad: Density-Fitted SCF Gradients <==

    Gradient:                    1
    J tasked:                  Yes
    K tasked:                  Yes
    wK tasked:                  No
    OpenMP threads:             16
    Integrals threads:          16
    Memory (MB):             78678
    Schwarz Cutoff:          0E+00
    Fitting Condition:       1E-12

   => Auxiliary Basis Set <=

  Basis Set: (6-31G(D) AUX)
    Blend: CC-PVDZ-JKFIT
    Number of shells: 417
    Number of basis function: 1406
    Number of Cartesian functions: 1406
    Spherical Harmonics?: false
    Max angular momentum: 3


  -Total Gradient:
     Atom            X                  Y                   Z
    ------   -----------------  -----------------  -----------------
       1       -0.000945842715    -0.000035815423     0.000043648461
       2       -0.000007071027     0.000048813446     0.000014928257
       3        0.000268107118    -0.000203876126    -0.000053180148
       4        0.000028837912    -0.000044537127    -0.000010534272
       5        0.000007949615     0.000000616236    -0.000000672645
       6        0.000000969267    -0.000001998393    -0.000001664832
       7        0.000001010308     0.000007774804    -0.000000049584
       8        0.000052352532     0.000035844657     0.000002111730
       9        0.000310636010     0.000224937593     0.000035902655
      10       -0.000020001461    -0.000022956131    -0.000003989042
      11       -0.000007114741     0.000004196557    -0.000008036249
      12        0.000000612975     0.000000635517     0.000001464688
      13       -0.000000971668    -0.000001695302     0.000002213831
      14       -0.000000098680     0.000004068240     0.000002678258
      15        0.000000584167    -0.000002015791     0.000001759537
      16        0.000000174956    -0.000000016122    -0.000000983501
      17        0.000002687358    -0.000002228784    -0.000000377197
      18        0.000307262309    -0.000011948934    -0.000026139818
      19       -0.000000084083     0.000000201031     0.000000919879


*** tstop() called on wr59 at Thu Sep 27 12:49:33 2018
Module time:
	user time   =      63.62 seconds =       1.06 minutes
	system time =       1.22 seconds =       0.02 minutes
	total time  =          4 seconds =       0.07 minutes
Total time:
	user time   =     321.58 seconds =       5.36 minutes
	system time =       7.84 seconds =       0.13 minutes
	total time  =         24 seconds =       0.40 minutes

  //>>>>>>>>>>>>>>>>>>>>>>>>>>>>>>>>>>>//
  //   Loading displacement 2 of 103   //
  //<<<<<<<<<<<<<<<<<<<<<<<<<<<<<<<<<<<//
gradient() will perform analytic gradient computation.

*** tstart() called on wr59
*** at Thu Sep 27 12:49:33 2018

   => Loading Basis Set <=

    Name: 6-31G(D)
    Role: ORBITAL
    Keyword: BASIS
    atoms 1, 3-4, 7-9, 11, 14 entry C          line   111 file /usr/local/hpc1/software_molmod/psi4/psi4conda/share/psi4/basis/6-31g_d_.gbs 
    atoms 2, 6, 15            entry O          line   145 file /usr/local/hpc1/software_molmod/psi4/psi4conda/share/psi4/basis/6-31g_d_.gbs 
    atoms 5, 10, 12-13, 16    entry H          line    44 file /usr/local/hpc1/software_molmod/psi4/psi4conda/share/psi4/basis/6-31g_d_.gbs 
    atoms 17-19               entry CL         line   340 file /usr/local/hpc1/software_molmod/psi4/psi4conda/share/psi4/basis/6-31g_d_.gbs 


         ---------------------------------------------------------
                                   SCF
            by Justin Turney, Rob Parrish, Andy Simmonett
                             and Daniel Smith
                              RHF Reference
                       16 Threads, 104904 MiB Core
         ---------------------------------------------------------

  ==> Geometry <==

    Molecular point group: c1
    Full point group: C1

    Geometry (in Angstrom), charge = 0, multiplicity = 1:

       Center              X                  Y                   Z               Mass       
    ------------   -----------------  -----------------  -----------------  -----------------
         C            1.252124812860    -0.560983809287    -0.652109335081    12.000000000000
         O            1.352031341609     1.793578208318    -0.213143631525    15.994914619560
         C            0.639605942368     0.649863854890    -0.356216634961    12.000000000000
         C           -0.739305100753     0.703324682519    -0.277310276783    12.000000000000
         H           -1.210841050820     1.645383101929    -0.075852522795     1.007825032070
         O            0.688050796136     3.771541213572     2.067242313643    15.994914619560
         C           -1.507730833766    -0.430774526249    -0.469245785057    12.000000000000
         C           -0.889758914452    -1.640539851995    -0.747360215547    12.000000000000
         C            0.490053723903    -1.696875158184    -0.840999901618    12.000000000000
         H            0.968549416849    -2.628485760069    -1.069025757859     1.007825032070
         C            1.981432149816     2.041462974559     1.025908086889    12.000000000000
         H            2.737902302860     2.783481576690     0.830925892405     1.007825032070
         H            2.430799075468     1.143959996347     1.424089797143     1.007825032070
         C            0.986495024292     2.626357134044     2.016456485044    12.000000000000
         O            0.468887763899     1.701462621916     2.815697274082    15.994914619560
         H           -0.160768455191     2.117198786290     3.398286180073     1.007825032070
         CL          -1.791319993540    -3.098042829757    -0.994523013861    34.968852682000
         CL           2.975504370999    -0.663192030136    -0.815954211103    34.968852682000
         CL          -3.228537798094    -0.288984592665    -0.352194782627    34.968852682000

  Running in c1 symmetry.

  Rotational constants: A =      0.02088  B =      0.01097  C =      0.00781 [cm^-1]
  Rotational constants: A =    625.94282  B =    328.78462  C =    234.25481 [MHz]
  Nuclear repulsion = 1194.263444932501670

  Charge       = 0
  Multiplicity = 1
  Electrons    = 128
  Nalpha       = 64
  Nbeta        = 64

  ==> Algorithm <==

  SCF Algorithm Type is DF.
  DIIS enabled.
  MOM disabled.
  Fractional occupation disabled.
  Guess Type is SAD.
  Energy threshold   = 1.00e-08
  Density threshold  = 1.00e-08
  Integral threshold = 0.00e+00

  ==> Primary Basis <==

  Basis Set: 6-31G(D)
    Blend: 6-31G(D)
    Number of shells: 100
    Number of basis function: 232
    Number of Cartesian functions: 232
    Spherical Harmonics?: false
    Max angular momentum: 2

   => Loading Basis Set <=

    Name: (6-31G(D) AUX)
    Role: JKFIT
    Keyword: DF_BASIS_SCF
    atoms 1, 3-4, 7-9, 11, 14 entry C          line   121 file /usr/local/hpc1/software_molmod/psi4/psi4conda/share/psi4/basis/cc-pvdz-jkfit.gbs 
    atoms 2, 6, 15            entry O          line   221 file /usr/local/hpc1/software_molmod/psi4/psi4conda/share/psi4/basis/cc-pvdz-jkfit.gbs 
    atoms 5, 10, 12-13, 16    entry H          line    51 file /usr/local/hpc1/software_molmod/psi4/psi4conda/share/psi4/basis/cc-pvdz-jkfit.gbs 
    atoms 17-19               entry CL         line   667 file /usr/local/hpc1/software_molmod/psi4/psi4conda/share/psi4/basis/cc-pvdz-jkfit.gbs 

  ==> Pre-Iterations <==

   -------------------------------------------------------
    Irrep   Nso     Nmo     Nalpha   Nbeta   Ndocc  Nsocc
   -------------------------------------------------------
     A        232     232       0       0       0       0
   -------------------------------------------------------
    Total     232     232      64      64      64       0
   -------------------------------------------------------

  ==> Integral Setup <==

  ==> DiskDFJK: Density-Fitted J/K Matrices <==

    J tasked:                  Yes
    K tasked:                  Yes
    wK tasked:                  No
    OpenMP threads:             16
    Integrals threads:          16
    Memory (MB):             78678
    Algorithm:                Core
    Integral Cache:           NONE
    Schwarz Cutoff:          1E-12
    Fitting Condition:       1E-12

   => Auxiliary Basis Set <=

  Basis Set: (6-31G(D) AUX)
    Blend: CC-PVDZ-JKFIT
    Number of shells: 417
    Number of basis function: 1406
    Number of Cartesian functions: 1406
    Spherical Harmonics?: false
    Max angular momentum: 3

  Minimum eigenvalue in the overlap matrix is 3.6755421111E-04.
  Using Symmetric Orthogonalization.

  SCF Guess: Superposition of Atomic Densities via on-the-fly atomic UHF.

  ==> Iterations <==

                           Total Energy        Delta E     RMS |[F,P]|

   @DF-RHF iter   0: -1915.51888302311477   -1.91552e+03   1.17789e-01 
   @DF-RHF iter   1: -1908.44503263358615    7.07385e+00   1.35276e-02 
   @DF-RHF iter   2: -1908.75997148505485   -3.14939e-01   7.77414e-03 DIIS
   @DF-RHF iter   3: -1908.85816901903058   -9.81975e-02   2.16652e-03 DIIS
   @DF-RHF iter   4: -1908.87277195630509   -1.46029e-02   7.62146e-04 DIIS
   @DF-RHF iter   5: -1908.87462950630515   -1.85755e-03   2.63571e-04 DIIS
   @DF-RHF iter   6: -1908.87494301965330   -3.13513e-04   8.91844e-05 DIIS
   @DF-RHF iter   7: -1908.87498194090540   -3.89213e-05   2.50397e-05 DIIS
   @DF-RHF iter   8: -1908.87498520794452   -3.26704e-06   1.01512e-05 DIIS
   @DF-RHF iter   9: -1908.87498576654866   -5.58604e-07   4.80372e-06 DIIS
   @DF-RHF iter  10: -1908.87498590757400   -1.41025e-07   2.13476e-06 DIIS
   @DF-RHF iter  11: -1908.87498594260751   -3.50335e-08   8.25855e-07 DIIS
   @DF-RHF iter  12: -1908.87498594714793   -4.54042e-09   3.63220e-07 DIIS
   @DF-RHF iter  13: -1908.87498594782119   -6.73253e-10   1.38120e-07 DIIS
   @DF-RHF iter  14: -1908.87498594793101   -1.09821e-10   4.99958e-08 DIIS
   @DF-RHF iter  15: -1908.87498594794397   -1.29603e-11   1.95891e-08 DIIS
   @DF-RHF iter  16: -1908.87498594794761   -3.63798e-12   9.17849e-09 DIIS

  ==> Post-Iterations <==

    Orbital Energies [Eh]
    ---------------------

    Doubly Occupied:                                                      

       1A   -104.850732     2A   -104.847555     3A   -104.846751  
       4A    -20.637203     5A    -20.619738     6A    -20.575255  
       7A    -11.402474     8A    -11.338408     9A    -11.336708  
      10A    -11.333592    11A    -11.329599    12A    -11.320997  
      13A    -11.284070    14A    -11.275472    15A    -10.583789  
      16A    -10.580822    17A    -10.579971    18A     -8.053235  
      19A     -8.050267    20A     -8.049784    21A     -8.049724  
      22A     -8.049418    23A     -8.046736    24A     -8.046712  
      25A     -8.045881    26A     -8.045876    27A     -1.500052  
      28A     -1.447829    29A     -1.390591    30A     -1.244613  
      31A     -1.187810    32A     -1.154595    33A     -1.115325  
      34A     -1.054723    35A     -1.021576    36A     -0.983022  
      37A     -0.884246    38A     -0.870384    39A     -0.816874  
      40A     -0.747665    41A     -0.738614    42A     -0.722403  
      43A     -0.704346    44A     -0.692443    45A     -0.677058  
      46A     -0.650107    47A     -0.634909    48A     -0.617570  
      49A     -0.609877    50A     -0.594920    51A     -0.575846  
      52A     -0.565001    53A     -0.548903    54A     -0.530925  
      55A     -0.514066    56A     -0.501556    57A     -0.498553  
      58A     -0.486057    59A     -0.475863    60A     -0.461120  
      61A     -0.457924    62A     -0.452098    63A     -0.366494  
      64A     -0.346668  

    Virtual:                                                              

      65A      0.096001    66A      0.104005    67A      0.147685  
      68A      0.157512    69A      0.202992    70A      0.214866  
      71A      0.234589    72A      0.271288    73A      0.278401  
      74A      0.288780    75A      0.300524    76A      0.322240  
      77A      0.343816    78A      0.367278    79A      0.398032  
      80A      0.424334    81A      0.433046    82A      0.453302  
      83A      0.473319    84A      0.485311    85A      0.505177  
      86A      0.525031    87A      0.541838    88A      0.565368  
      89A      0.583553    90A      0.597682    91A      0.602177  
      92A      0.615655    93A      0.626078    94A      0.640129  
      95A      0.651920    96A      0.663357    97A      0.670453  
      98A      0.679734    99A      0.704730   100A      0.710580  
     101A      0.736180   102A      0.752763   103A      0.776003  
     104A      0.781643   105A      0.806606   106A      0.818463  
     107A      0.824409   108A      0.843454   109A      0.852668  
     110A      0.872884   111A      0.884689   112A      0.892268  
     113A      0.938764   114A      0.954312   115A      0.958732  
     116A      0.974996   117A      1.001013   118A      1.007555  
     119A      1.032811   120A      1.042057   121A      1.046459  
     122A      1.072150   123A      1.073770   124A      1.101721  
     125A      1.111932   126A      1.114540   127A      1.119258  
     128A      1.125258   129A      1.129634   130A      1.134607  
     131A      1.141391   132A      1.141958   133A      1.172223  
     134A      1.188473   135A      1.193737   136A      1.212048  
     137A      1.223315   138A      1.238414   139A      1.253068  
     140A      1.264558   141A      1.276952   142A      1.291287  
     143A      1.325410   144A      1.327544   145A      1.335241  
     146A      1.342808   147A      1.373782   148A      1.408851  
     149A      1.417638   150A      1.431613   151A      1.448621  
     152A      1.454179   153A      1.474178   154A      1.528036  
     155A      1.552983   156A      1.588580   157A      1.626295  
     158A      1.635161   159A      1.672672   160A      1.675869  
     161A      1.686473   162A      1.739253   163A      1.751362  
     164A      1.782388   165A      1.792199   166A      1.805560  
     167A      1.824301   168A      1.871155   169A      1.909662  
     170A      1.941451   171A      1.979971   172A      2.019189  
     173A      2.035685   174A      2.070269   175A      2.085260  
     176A      2.104888   177A      2.129781   178A      2.149485  
     179A      2.178912   180A      2.202038   181A      2.226087  
     182A      2.244346   183A      2.273620   184A      2.307136  
     185A      2.320349   186A      2.343553   187A      2.382511  
     188A      2.413886   189A      2.417191   190A      2.438527  
     191A      2.452734   192A      2.504542   193A      2.522527  
     194A      2.578805   195A      2.585412   196A      2.595673  
     197A      2.613473   198A      2.677466   199A      2.748157  
     200A      2.833548   201A      2.864979   202A      2.879551  
     203A      2.886177   204A      2.975844   205A      2.996890  
     206A      3.026387   207A      3.069310   208A      3.072923  
     209A      3.102746   210A      3.112737   211A      3.185211  
     212A      3.188063   213A      3.246540   214A      3.355194  
     215A      3.386932   216A      3.459443   217A      3.492915  
     218A      3.709556   219A      4.256544   220A      4.424179  
     221A      4.450280   222A      4.484489   223A      4.510239  
     224A      4.591946   225A      4.609978   226A      4.676394  
     227A      4.726102   228A      4.747412   229A      4.796999  
     230A      4.871345   231A      4.942647   232A      5.147576  

    Final Occupation by Irrep:
              A 
    DOCC [    64 ]

  Energy converged.

  @DF-RHF Final Energy: -1908.87498594794761

   => Energetics <=

    Nuclear Repulsion Energy =           1194.2634449325016703
    One-Electron Energy =               -5006.2300649747921852
    Two-Electron Energy =                1903.0916340943431351
    Total Energy =                      -1908.8749859479476072



Properties will be evaluated at   0.000000,   0.000000,   0.000000 [a0]

Properties computed using the SCF density matrix

  Nuclear Dipole Moment: [e a0]
     X:     6.3512      Y:     8.4877      Z:     6.2287

  Electronic Dipole Moment: [e a0]
     X:    -5.9148      Y:    -8.8049      Z:    -5.5279

  Dipole Moment: [e a0]
     X:     0.4364      Y:    -0.3172      Z:     0.7008     Total:     0.8844

  Dipole Moment: [D]
     X:     1.1092      Y:    -0.8063      Z:     1.7813     Total:     2.2480


*** tstop() called on wr59 at Thu Sep 27 12:49:41 2018
Module time:
	user time   =     105.12 seconds =       1.75 minutes
	system time =       2.39 seconds =       0.04 minutes
	total time  =          8 seconds =       0.13 minutes
Total time:
	user time   =     426.93 seconds =       7.12 minutes
	system time =      10.25 seconds =       0.17 minutes
	total time  =         32 seconds =       0.53 minutes

*** tstart() called on wr59
*** at Thu Sep 27 12:49:41 2018


         ------------------------------------------------------------
                                   SCF GRAD                          
                          Rob Parrish, Justin Turney,                
                       Andy Simmonett, and Alex Sokolov              
         ------------------------------------------------------------

  ==> Geometry <==

    Molecular point group: c1
    Full point group: C1

    Geometry (in Angstrom), charge = 0, multiplicity = 1:

       Center              X                  Y                   Z               Mass       
    ------------   -----------------  -----------------  -----------------  -----------------
         C            1.252124812860    -0.560983809287    -0.652109335081    12.000000000000
         O            1.352031341609     1.793578208318    -0.213143631525    15.994914619560
         C            0.639605942368     0.649863854890    -0.356216634961    12.000000000000
         C           -0.739305100753     0.703324682519    -0.277310276783    12.000000000000
         H           -1.210841050820     1.645383101929    -0.075852522795     1.007825032070
         O            0.688050796136     3.771541213572     2.067242313643    15.994914619560
         C           -1.507730833766    -0.430774526249    -0.469245785057    12.000000000000
         C           -0.889758914452    -1.640539851995    -0.747360215547    12.000000000000
         C            0.490053723903    -1.696875158184    -0.840999901618    12.000000000000
         H            0.968549416849    -2.628485760069    -1.069025757859     1.007825032070
         C            1.981432149816     2.041462974559     1.025908086889    12.000000000000
         H            2.737902302860     2.783481576690     0.830925892405     1.007825032070
         H            2.430799075468     1.143959996347     1.424089797143     1.007825032070
         C            0.986495024292     2.626357134044     2.016456485044    12.000000000000
         O            0.468887763899     1.701462621916     2.815697274082    15.994914619560
         H           -0.160768455191     2.117198786290     3.398286180073     1.007825032070
         CL          -1.791319993540    -3.098042829757    -0.994523013861    34.968852682000
         CL           2.975504370999    -0.663192030136    -0.815954211103    34.968852682000
         CL          -3.228537798094    -0.288984592665    -0.352194782627    34.968852682000

  Nuclear repulsion = 1194.263444932501670

  ==> Basis Set <==

  Basis Set: 6-31G(D)
    Blend: 6-31G(D)
    Number of shells: 100
    Number of basis function: 232
    Number of Cartesian functions: 232
    Spherical Harmonics?: false
    Max angular momentum: 2

  ==> DFJKGrad: Density-Fitted SCF Gradients <==

    Gradient:                    1
    J tasked:                  Yes
    K tasked:                  Yes
    wK tasked:                  No
    OpenMP threads:             16
    Integrals threads:          16
    Memory (MB):             78678
    Schwarz Cutoff:          0E+00
    Fitting Condition:       1E-12

   => Auxiliary Basis Set <=

  Basis Set: (6-31G(D) AUX)
    Blend: CC-PVDZ-JKFIT
    Number of shells: 417
    Number of basis function: 1406
    Number of Cartesian functions: 1406
    Spherical Harmonics?: false
    Max angular momentum: 3


  -Total Gradient:
     Atom            X                  Y                   Z
    ------   -----------------  -----------------  -----------------
       1        0.000946668091     0.000035766497    -0.000045261734
       2        0.000007231340    -0.000049280229    -0.000014435050
       3       -0.000269030853     0.000204335731     0.000050430492
       4       -0.000026441318     0.000045458112     0.000013487049
       5       -0.000007773559    -0.000000840103     0.000000919473
       6        0.000001265344    -0.000003566579    -0.000001333838
       7       -0.000001680967    -0.000008069446    -0.000003757426
       8       -0.000054468751    -0.000034385722    -0.000004612434
       9       -0.000308686633    -0.000225138017    -0.000034314306
      10        0.000020309056     0.000022538492     0.000004316072
      11        0.000006790061    -0.000004560070     0.000008246536
      12       -0.000000788970    -0.000000733590    -0.000001110293
      13        0.000000342238     0.000001034223    -0.000002446753
      14       -0.000002331203     0.000008329567    -0.000000209946
      15       -0.000000575933    -0.000003586447     0.000000443366
      16        0.000000522107     0.000000136886     0.000000009282
      17       -0.000002709390     0.000001670461     0.000001847699
      18       -0.000308375871     0.000011586359     0.000027077452
      19       -0.000000264772    -0.000000696214     0.000000704389


*** tstop() called on wr59 at Thu Sep 27 12:49:46 2018
Module time:
	user time   =      62.96 seconds =       1.05 minutes
	system time =       1.53 seconds =       0.03 minutes
	total time  =          5 seconds =       0.08 minutes
Total time:
	user time   =     489.92 seconds =       8.17 minutes
	system time =      11.78 seconds =       0.20 minutes
	total time  =         37 seconds =       0.62 minutes

  //>>>>>>>>>>>>>>>>>>>>>>>>>>>>>>>>>>>//
  //   Loading displacement 3 of 103   //
  //<<<<<<<<<<<<<<<<<<<<<<<<<<<<<<<<<<<//
gradient() will perform analytic gradient computation.

*** tstart() called on wr59
*** at Thu Sep 27 12:49:46 2018

   => Loading Basis Set <=

    Name: 6-31G(D)
    Role: ORBITAL
    Keyword: BASIS
    atoms 1, 3-4, 7-9, 11, 14 entry C          line   111 file /usr/local/hpc1/software_molmod/psi4/psi4conda/share/psi4/basis/6-31g_d_.gbs 
    atoms 2, 6, 15            entry O          line   145 file /usr/local/hpc1/software_molmod/psi4/psi4conda/share/psi4/basis/6-31g_d_.gbs 
    atoms 5, 10, 12-13, 16    entry H          line    44 file /usr/local/hpc1/software_molmod/psi4/psi4conda/share/psi4/basis/6-31g_d_.gbs 
    atoms 17-19               entry CL         line   340 file /usr/local/hpc1/software_molmod/psi4/psi4conda/share/psi4/basis/6-31g_d_.gbs 


         ---------------------------------------------------------
                                   SCF
            by Justin Turney, Rob Parrish, Andy Simmonett
                             and Daniel Smith
                              RHF Reference
                       16 Threads, 104904 MiB Core
         ---------------------------------------------------------

  ==> Geometry <==

    Molecular point group: c1
    Full point group: C1

    Geometry (in Angstrom), charge = 0, multiplicity = 1:

       Center              X                  Y                   Z               Mass       
    ------------   -----------------  -----------------  -----------------  -----------------
         C            1.251381144312    -0.561720895182    -0.652112648420    12.000000000000
         O            1.352051550835     1.793629496862    -0.213133599592    15.994914619560
         C            0.639636922268     0.649909236577    -0.356213015818    12.000000000000
         C           -0.739274616712     0.703356612987    -0.277306209761    12.000000000000
         H           -1.210819429617     1.645409442892    -0.075843062654     1.007825032070
         O            0.688052591602     3.771573305345     2.067263634875    15.994914619560
         C           -1.507689674849    -0.430748753575    -0.469248070411    12.000000000000
         C           -0.889706376160    -1.640506674043    -0.747369427898    12.000000000000
         C            0.490106783615    -1.696828436939    -0.841009578249    12.000000000000
         H            0.968611238087    -2.628433232981    -1.069040769075     1.007825032070
         C            1.981450151346     2.041513170230     1.025919458895    12.000000000000
         H            2.737913286403     2.783540012150     0.830941394032     1.007825032070
         H            2.430825582557     1.144012171090     1.424096031093     1.007825032070
         C            0.986507613956     2.626392328341     2.016471279121    12.000000000000
         O            0.468909159516     1.701488401417     2.815706876156    15.994914619560
         H           -0.160750919010     2.117215323244     3.398298206384     1.007825032070
         CL          -1.791253736340    -3.098016751842    -0.994540399075    34.968852682000
         CL           2.975547685268    -0.663122012267    -0.815958285048    34.968852682000
         CL          -3.228497964007    -0.288975711783    -0.352196083209    34.968852682000

  Running in c1 symmetry.

  Rotational constants: A =      0.02088  B =      0.01097  C =      0.00781 [cm^-1]
  Rotational constants: A =    625.95069  B =    328.78548  C =    234.25609 [MHz]
  Nuclear repulsion = 1194.263021322280565

  Charge       = 0
  Multiplicity = 1
  Electrons    = 128
  Nalpha       = 64
  Nbeta        = 64

  ==> Algorithm <==

  SCF Algorithm Type is DF.
  DIIS enabled.
  MOM disabled.
  Fractional occupation disabled.
  Guess Type is SAD.
  Energy threshold   = 1.00e-08
  Density threshold  = 1.00e-08
  Integral threshold = 0.00e+00

  ==> Primary Basis <==

  Basis Set: 6-31G(D)
    Blend: 6-31G(D)
    Number of shells: 100
    Number of basis function: 232
    Number of Cartesian functions: 232
    Spherical Harmonics?: false
    Max angular momentum: 2

   => Loading Basis Set <=

    Name: (6-31G(D) AUX)
    Role: JKFIT
    Keyword: DF_BASIS_SCF
    atoms 1, 3-4, 7-9, 11, 14 entry C          line   121 file /usr/local/hpc1/software_molmod/psi4/psi4conda/share/psi4/basis/cc-pvdz-jkfit.gbs 
    atoms 2, 6, 15            entry O          line   221 file /usr/local/hpc1/software_molmod/psi4/psi4conda/share/psi4/basis/cc-pvdz-jkfit.gbs 
    atoms 5, 10, 12-13, 16    entry H          line    51 file /usr/local/hpc1/software_molmod/psi4/psi4conda/share/psi4/basis/cc-pvdz-jkfit.gbs 
    atoms 17-19               entry CL         line   667 file /usr/local/hpc1/software_molmod/psi4/psi4conda/share/psi4/basis/cc-pvdz-jkfit.gbs 

  ==> Pre-Iterations <==

   -------------------------------------------------------
    Irrep   Nso     Nmo     Nalpha   Nbeta   Ndocc  Nsocc
   -------------------------------------------------------
     A        232     232       0       0       0       0
   -------------------------------------------------------
    Total     232     232      64      64      64       0
   -------------------------------------------------------

  ==> Integral Setup <==

  ==> DiskDFJK: Density-Fitted J/K Matrices <==

    J tasked:                  Yes
    K tasked:                  Yes
    wK tasked:                  No
    OpenMP threads:             16
    Integrals threads:          16
    Memory (MB):             78678
    Algorithm:                Core
    Integral Cache:           NONE
    Schwarz Cutoff:          1E-12
    Fitting Condition:       1E-12

   => Auxiliary Basis Set <=

  Basis Set: (6-31G(D) AUX)
    Blend: CC-PVDZ-JKFIT
    Number of shells: 417
    Number of basis function: 1406
    Number of Cartesian functions: 1406
    Spherical Harmonics?: false
    Max angular momentum: 3

  Minimum eigenvalue in the overlap matrix is 3.6716203352E-04.
  Using Symmetric Orthogonalization.

  SCF Guess: Superposition of Atomic Densities via on-the-fly atomic UHF.

  ==> Iterations <==

                           Total Energy        Delta E     RMS |[F,P]|

   @DF-RHF iter   0: -1916.90591019577596   -1.91691e+03   1.16922e-01 
   @DF-RHF iter   1: -1908.49533311110235    8.41058e+00   1.31507e-02 
   @DF-RHF iter   2: -1908.77200595267391   -2.76673e-01   7.84529e-03 DIIS
   @DF-RHF iter   3: -1908.86464199220200   -9.26360e-02   1.68778e-03 DIIS
   @DF-RHF iter   4: -1908.87367766278157   -9.03567e-03   6.38401e-04 DIIS
   @DF-RHF iter   5: -1908.87475201368034   -1.07435e-03   2.27934e-04 DIIS
   @DF-RHF iter   6: -1908.87495316642230   -2.01153e-04   8.10385e-05 DIIS
   @DF-RHF iter   7: -1908.87498260371876   -2.94373e-05   2.30155e-05 DIIS
   @DF-RHF iter   8: -1908.87498527479238   -2.67107e-06   1.08468e-05 DIIS
   @DF-RHF iter   9: -1908.87498575313634   -4.78344e-07   3.81630e-06 DIIS
   @DF-RHF iter  10: -1908.87498584811192   -9.49756e-08   1.64056e-06 DIIS
   @DF-RHF iter  11: -1908.87498586625929   -1.81474e-08   7.11989e-07 DIIS
   @DF-RHF iter  12: -1908.87498586903780   -2.77851e-09   3.25032e-07 DIIS
   @DF-RHF iter  13: -1908.87498586959487   -5.57066e-10   1.24142e-07 DIIS
   @DF-RHF iter  14: -1908.87498586969718   -1.02318e-10   4.75079e-08 DIIS
   @DF-RHF iter  15: -1908.87498586970923   -1.20508e-11   1.89449e-08 DIIS
   @DF-RHF iter  16: -1908.87498586970901    2.27374e-13   7.40124e-09 DIIS

  ==> Post-Iterations <==

    Orbital Energies [Eh]
    ---------------------

    Doubly Occupied:                                                      

       1A   -104.850651     2A   -104.847566     3A   -104.846766  
       4A    -20.637211     5A    -20.619798     6A    -20.575265  
       7A    -11.402484     8A    -11.338475     9A    -11.336717  
      10A    -11.333609    11A    -11.329600    12A    -11.321012  
      13A    -11.283993    14A    -11.275479    15A    -10.583699  
      16A    -10.580833    17A    -10.579986    18A     -8.053142  
      19A     -8.050278    20A     -8.049694    21A     -8.049634  
      22A     -8.049433    23A     -8.046747    24A     -8.046723  
      25A     -8.045896    26A     -8.045890    27A     -1.500062  
      28A     -1.447852    29A     -1.390600    30A     -1.244669  
      31A     -1.187708    32A     -1.154610    33A     -1.115281  
      34A     -1.054810    35A     -1.021649    36A     -0.983012  
      37A     -0.884243    38A     -0.870397    39A     -0.816950  
      40A     -0.747685    41A     -0.738673    42A     -0.722414  
      43A     -0.704372    44A     -0.692459    45A     -0.677042  
      46A     -0.650192    47A     -0.634923    48A     -0.617584  
      49A     -0.609806    50A     -0.594961    51A     -0.575866  
      52A     -0.564921    53A     -0.548929    54A     -0.530859  
      55A     -0.514042    56A     -0.501563    57A     -0.498560  
      58A     -0.486052    59A     -0.475833    60A     -0.461141  
      61A     -0.457941    62A     -0.452117    63A     -0.366613  
      64A     -0.346665  

    Virtual:                                                              

      65A      0.096117    66A      0.103911    67A      0.147603  
      68A      0.157499    69A      0.202866    70A      0.214860  
      71A      0.234588    72A      0.271292    73A      0.278384  
      74A      0.288779    75A      0.300534    76A      0.322285  
      77A      0.343819    78A      0.367291    79A      0.398044  
      80A      0.424333    81A      0.433147    82A      0.453378  
      83A      0.473330    84A      0.485294    85A      0.505178  
      86A      0.525037    87A      0.541832    88A      0.565417  
      89A      0.583568    90A      0.597669    91A      0.602186  
      92A      0.615650    93A      0.626009    94A      0.640175  
      95A      0.651919    96A      0.663372    97A      0.670448  
      98A      0.679791    99A      0.704680   100A      0.710497  
     101A      0.736119   102A      0.752740   103A      0.775980  
     104A      0.781646   105A      0.806645   106A      0.818436  
     107A      0.824403   108A      0.843482   109A      0.852693  
     110A      0.872871   111A      0.884658   112A      0.892243  
     113A      0.938720   114A      0.954318   115A      0.958735  
     116A      0.974973   117A      1.001024   118A      1.007590  
     119A      1.032816   120A      1.042023   121A      1.046500  
     122A      1.072129   123A      1.073758   124A      1.101711  
     125A      1.111919   126A      1.114574   127A      1.119254  
     128A      1.125243   129A      1.129630   130A      1.134622  
     131A      1.141385   132A      1.141970   133A      1.172283  
     134A      1.188508   135A      1.193743   136A      1.212030  
     137A      1.223292   138A      1.238518   139A      1.253075  
     140A      1.264687   141A      1.276908   142A      1.291190  
     143A      1.325338   144A      1.327549   145A      1.335222  
     146A      1.342786   147A      1.373804   148A      1.408792  
     149A      1.417575   150A      1.431589   151A      1.448590  
     152A      1.454306   153A      1.474223   154A      1.528052  
     155A      1.552986   156A      1.588592   157A      1.626297  
     158A      1.635157   159A      1.672666   160A      1.675977  
     161A      1.686458   162A      1.739230   163A      1.751337  
     164A      1.782364   165A      1.792122   166A      1.805519  
     167A      1.824299   168A      1.871070   169A      1.909658  
     170A      1.941526   171A      1.980038   172A      2.019098  
     173A      2.035634   174A      2.070499   175A      2.085204  
     176A      2.104959   177A      2.129691   178A      2.149487  
     179A      2.178758   180A      2.201996   181A      2.226007  
     182A      2.244263   183A      2.273687   184A      2.307036  
     185A      2.320291   186A      2.343504   187A      2.382774  
     188A      2.414005   189A      2.417407   190A      2.438623  
     191A      2.452792   192A      2.504562   193A      2.522527  
     194A      2.578848   195A      2.585540   196A      2.595865  
     197A      2.613446   198A      2.677451   199A      2.748150  
     200A      2.833411   201A      2.864969   202A      2.879717  
     203A      2.886326   204A      2.975979   205A      2.996839  
     206A      3.026337   207A      3.069674   208A      3.073255  
     209A      3.103115   210A      3.112747   211A      3.185144  
     212A      3.188052   213A      3.246530   214A      3.355201  
     215A      3.386885   216A      3.459457   217A      3.492879  
     218A      3.709788   219A      4.256555   220A      4.424166  
     221A      4.450478   222A      4.484641   223A      4.510235  
     224A      4.591998   225A      4.609965   226A      4.676427  
     227A      4.726130   228A      4.747454   229A      4.796836  
     230A      4.871358   231A      4.942609   232A      5.147817  

    Final Occupation by Irrep:
              A 
    DOCC [    64 ]

  Energy converged.

  @DF-RHF Final Energy: -1908.87498586970901

   => Energetics <=

    Nuclear Repulsion Energy =           1194.2630213222805651
    One-Electron Energy =               -5006.2287408702668472
    Two-Electron Energy =                1903.0907336782772745
    Total Energy =                      -1908.8749858697090076



Properties will be evaluated at   0.000000,   0.000000,   0.000000 [a0]

Properties computed using the SCF density matrix

  Nuclear Dipole Moment: [e a0]
     X:     6.3512      Y:     8.4878      Z:     6.2288

  Electronic Dipole Moment: [e a0]
     X:    -5.9161      Y:    -8.8048      Z:    -5.5277

  Dipole Moment: [e a0]
     X:     0.4351      Y:    -0.3170      Z:     0.7011     Total:     0.8839

  Dipole Moment: [D]
     X:     1.1059      Y:    -0.8058      Z:     1.7820     Total:     2.2467


*** tstop() called on wr59 at Thu Sep 27 12:49:53 2018
Module time:
	user time   =      99.76 seconds =       1.66 minutes
	system time =       2.63 seconds =       0.04 minutes
	total time  =          7 seconds =       0.12 minutes
Total time:
	user time   =     589.89 seconds =       9.83 minutes
	system time =      14.42 seconds =       0.24 minutes
	total time  =         44 seconds =       0.73 minutes

*** tstart() called on wr59
*** at Thu Sep 27 12:49:53 2018


         ------------------------------------------------------------
                                   SCF GRAD                          
                          Rob Parrish, Justin Turney,                
                       Andy Simmonett, and Alex Sokolov              
         ------------------------------------------------------------

  ==> Geometry <==

    Molecular point group: c1
    Full point group: C1

    Geometry (in Angstrom), charge = 0, multiplicity = 1:

       Center              X                  Y                   Z               Mass       
    ------------   -----------------  -----------------  -----------------  -----------------
         C            1.251381144312    -0.561720895182    -0.652112648420    12.000000000000
         O            1.352051550835     1.793629496862    -0.213133599592    15.994914619560
         C            0.639636922268     0.649909236577    -0.356213015818    12.000000000000
         C           -0.739274616712     0.703356612987    -0.277306209761    12.000000000000
         H           -1.210819429617     1.645409442892    -0.075843062654     1.007825032070
         O            0.688052591602     3.771573305345     2.067263634875    15.994914619560
         C           -1.507689674849    -0.430748753575    -0.469248070411    12.000000000000
         C           -0.889706376160    -1.640506674043    -0.747369427898    12.000000000000
         C            0.490106783615    -1.696828436939    -0.841009578249    12.000000000000
         H            0.968611238087    -2.628433232981    -1.069040769075     1.007825032070
         C            1.981450151346     2.041513170230     1.025919458895    12.000000000000
         H            2.737913286403     2.783540012150     0.830941394032     1.007825032070
         H            2.430825582557     1.144012171090     1.424096031093     1.007825032070
         C            0.986507613956     2.626392328341     2.016471279121    12.000000000000
         O            0.468909159516     1.701488401417     2.815706876156    15.994914619560
         H           -0.160750919010     2.117215323244     3.398298206384     1.007825032070
         CL          -1.791253736340    -3.098016751842    -0.994540399075    34.968852682000
         CL           2.975547685268    -0.663122012267    -0.815958285048    34.968852682000
         CL          -3.228497964007    -0.288975711783    -0.352196083209    34.968852682000

  Nuclear repulsion = 1194.263021322280792

  ==> Basis Set <==

  Basis Set: 6-31G(D)
    Blend: 6-31G(D)
    Number of shells: 100
    Number of basis function: 232
    Number of Cartesian functions: 232
    Spherical Harmonics?: false
    Max angular momentum: 2

  ==> DFJKGrad: Density-Fitted SCF Gradients <==

    Gradient:                    1
    J tasked:                  Yes
    K tasked:                  Yes
    wK tasked:                  No
    OpenMP threads:             16
[...]
     12   H               -0.14 -0.14 -0.40   -0.04  0.02  0.03   -0.12  0.04  0.01   
     13   H               -0.11 -0.05 -0.37    0.02 -0.03 -0.09    0.08 -0.03 -0.21   
     14   C                0.06  0.03  0.00    0.00  0.00  0.01    0.01  0.01  0.01   
     15   O               -0.03 -0.04  0.03    0.00  0.01 -0.00   -0.00 -0.00 -0.00   
     16   H               -0.05 -0.01 -0.01   -0.01 -0.02  0.01   -0.02 -0.05  0.01   
     17   CL              -0.01 -0.02 -0.00   -0.00 -0.01 -0.00    0.01  0.02  0.00   
     18   CL               0.01 -0.00 -0.00    0.00  0.00  0.00   -0.05  0.01  0.01   
     19   CL               0.03 -0.00 -0.00   -0.00  0.00  0.00   -0.01  0.00  0.00   

  Vibration                       40                  41                  42          
  Freq [cm^-1]                1260.5393           1340.2527           1374.7633       
  Irrep                           A                   A                   A           
  Reduced mass [u]              2.2890              1.9533              1.8989        
  Force const [mDyne/A]         2.1429              2.0673              2.1146        
  Turning point v=0 [a0]        0.2043              0.2145              0.2148        
  RMS dev v=0 [a0 u^1/2]        0.2185              0.2119              0.2093        
  Char temp [K]               1813.6326           1928.3223           1977.9753       
  ----------------------------------------------------------------------------------
      1   C               -0.03 -0.06 -0.01    0.01  0.01 -0.00   -0.08 -0.02  0.00   
      2   O               -0.02 -0.02 -0.02   -0.00  0.03 -0.03    0.05  0.05  0.05   
      3   C               -0.05  0.07  0.02    0.00  0.00  0.02   -0.10 -0.10 -0.02   
      4   C                0.05 -0.07 -0.01    0.00  0.00 -0.00   -0.03 -0.01  0.00   
      5   H               -0.59 -0.40 -0.08   -0.00 -0.01  0.01    0.62  0.31  0.03   
      6   O                0.00 -0.01 -0.00   -0.02  0.08  0.00   -0.01  0.03  0.00   
      7   C                0.19 -0.04 -0.02   -0.00  0.01  0.00    0.05 -0.08 -0.02   
      8   C                0.06  0.21  0.04   -0.01 -0.01 -0.00    0.13  0.02 -0.00   
      9   C               -0.01  0.03  0.01    0.00 -0.01 -0.00   -0.06  0.08  0.02   
     10   H               -0.56 -0.23 -0.01   -0.01 -0.02 -0.00   -0.39 -0.07  0.01   
     11   C                0.01  0.01  0.02   -0.04 -0.08  0.05   -0.01 -0.00 -0.05   
     12   H                0.01 -0.02 -0.07   -0.26  0.08 -0.17    0.00  0.12  0.40   
     13   H               -0.01  0.01  0.06    0.18  0.16  0.37    0.01 -0.09 -0.28   
     14   C               -0.00  0.00 -0.00    0.09  0.05 -0.10    0.01  0.00 -0.01   
     15   O               -0.00 -0.00  0.00   -0.02 -0.16  0.06    0.00 -0.03  0.01   
     16   H                0.00  0.01 -0.00    0.15  0.71 -0.34    0.02  0.13 -0.07   
     17   CL              -0.01 -0.02 -0.00    0.00  0.00  0.00   -0.01 -0.01 -0.00   
     18   CL               0.00  0.00 -0.00   -0.00 -0.00 -0.00    0.01  0.00 -0.00   
     19   CL              -0.03  0.00  0.00    0.00 -0.00 -0.00   -0.01  0.00  0.00   

  Vibration                       43                  44                  45          
  Freq [cm^-1]                1381.4968           1427.4516           1483.7090       
  Irrep                           A                   A                   A           
  Reduced mass [u]              1.4429              1.5981              2.4969        
  Force const [mDyne/A]         1.6225              1.9186              3.2385        
  Turning point v=0 [a0]        0.2458              0.2297              0.1803        
  RMS dev v=0 [a0 u^1/2]        0.2087              0.2054              0.2014        
  Char temp [K]               1987.6633           2053.7819           2134.7236       
  ----------------------------------------------------------------------------------
      1   C               -0.06 -0.09 -0.01   -0.05 -0.06 -0.01    0.08  0.11  0.02   
      2   O                0.02  0.03  0.03    0.04  0.09  0.01    0.00 -0.00  0.01   
      3   C                0.01 -0.10 -0.03   -0.01 -0.08 -0.00   -0.14 -0.01 -0.00   
      4   C               -0.02 -0.01  0.00   -0.03  0.00  0.00    0.03 -0.09 -0.02   
      5   H               -0.41 -0.20 -0.04    0.05  0.04  0.01    0.08 -0.08 -0.04   
      6   O               -0.01  0.03 -0.00    0.00 -0.05  0.01   -0.02 -0.01  0.02   
      7   C                0.04  0.05  0.01    0.02 -0.01 -0.00    0.09  0.10  0.02   
      8   C               -0.01  0.05  0.01    0.06  0.02  0.00   -0.13 -0.00  0.01   
      9   C               -0.01  0.05  0.01   -0.04  0.05  0.01    0.05 -0.08 -0.02   
     10   H                0.62  0.38  0.04    0.15  0.16  0.03    0.01 -0.12 -0.03   
     11   C               -0.01  0.00 -0.03   -0.03 -0.05 -0.02    0.01 -0.02 -0.06   
     12   H                0.01  0.10  0.35   -0.10 -0.08 -0.42   -0.10  0.30  0.69   
     13   H                0.01 -0.09 -0.25    0.05  0.26  0.61   -0.06  0.07  0.20   
     14   C                0.01  0.00 -0.00    0.06  0.02 -0.05    0.13  0.05 -0.11   
     15   O                0.00 -0.02  0.00   -0.03  0.04  0.02   -0.04  0.01  0.04   
     16   H                0.03  0.14 -0.08   -0.12 -0.44  0.24   -0.12 -0.39  0.22   
     17   CL              -0.00 -0.00 -0.00   -0.00 -0.00 -0.00    0.01  0.00  0.00   
     18   CL               0.01  0.00 -0.00    0.00  0.00 -0.00   -0.00 -0.00 -0.00   
     19   CL              -0.00 -0.00  0.00   -0.00  0.00  0.00   -0.01 -0.00 -0.00   

  Vibration                       46                  47                  48          
  Freq [cm^-1]                1514.7623           1577.0527           1638.2952       
  Irrep                           A                   A                   A           
  Reduced mass [u]              3.0409              1.8375              1.3631        
  Force const [mDyne/A]         4.1109              2.6926              2.1556        
  Turning point v=0 [a0]        0.1617              0.2038              0.2322        
  RMS dev v=0 [a0 u^1/2]        0.1994              0.1954              0.1917        
  Char temp [K]               2179.4024           2269.0243           2357.1384       
  ----------------------------------------------------------------------------------
      1   C               -0.08 -0.06 -0.01   -0.01  0.01  0.00   -0.05  0.02  0.01   
      2   O               -0.09 -0.09 -0.03   -0.02  0.01  0.00    0.00  0.01 -0.00   
      3   C                0.20  0.08  0.00    0.01 -0.00 -0.00   -0.02 -0.07 -0.01   
      4   C                0.03  0.13  0.03    0.01  0.01  0.00    0.06  0.03  0.00   
      5   H               -0.29  0.00  0.01   -0.05 -0.02 -0.00   -0.21 -0.11 -0.02   
      6   O               -0.02 -0.01  0.02    0.01  0.02 -0.02    0.00 -0.00  0.00   
      7   C               -0.15 -0.11 -0.01   -0.01 -0.01 -0.00   -0.04  0.03  0.01   
      8   C                0.11 -0.02 -0.01    0.00 -0.00 -0.00   -0.01 -0.06 -0.01   
      9   C               -0.01  0.06  0.01    0.00 -0.00 -0.00    0.07  0.04  0.00   
     10   H               -0.20 -0.03  0.01   -0.04 -0.02 -0.00   -0.23 -0.11 -0.01   
     11   C                0.02 -0.01 -0.01    0.06 -0.05 -0.16   -0.08  0.01  0.00   
     12   H               -0.14  0.33  0.64    0.03  0.14  0.42    0.42 -0.44  0.19   
     13   H               -0.14 -0.03  0.08   -0.06  0.26  0.76    0.58  0.31 -0.05   
     14   C                0.13  0.05 -0.11   -0.09 -0.06  0.16    0.00  0.01 -0.01   
     15   O               -0.04 -0.01  0.04    0.04  0.01 -0.05   -0.00 -0.00  0.00   
     16   H               -0.09 -0.29  0.17    0.07  0.23 -0.15   -0.01 -0.02  0.01   
     17   CL              -0.00  0.00  0.00   -0.00  0.00  0.00    0.00  0.00  0.00   
     18   CL               0.00  0.00  0.00    0.00 -0.00 -0.00    0.00 -0.00 -0.00   
     19   CL               0.01  0.00 -0.00    0.00 -0.00 -0.00    0.00 -0.00 -0.00   

  Vibration                       49                  50                  51          
  Freq [cm^-1]                1656.4113           1743.6091           1791.6345       
  Irrep                           A                   A                   A           
  Reduced mass [u]              2.0273             10.1067              6.5432        
  Force const [mDyne/A]         3.2772             18.1034             12.3748        
  Turning point v=0 [a0]        0.1894              0.0827              0.1013        
  RMS dev v=0 [a0 u^1/2]        0.1906              0.1858              0.1833        
  Char temp [K]               2383.2035           2508.6615           2577.7592       
  ----------------------------------------------------------------------------------
      1   C                0.09 -0.01 -0.01   -0.15  0.38  0.09    0.15  0.20  0.03   
      2   O               -0.03 -0.04 -0.02    0.01  0.05  0.01    0.02  0.03  0.01   
      3   C                0.06  0.12  0.02    0.29 -0.37 -0.09   -0.24 -0.13 -0.02   
      4   C               -0.10 -0.02 -0.00   -0.13  0.16  0.04    0.34  0.18  0.02   
      5   H                0.32  0.18  0.03   -0.10  0.21  0.05   -0.47 -0.22 -0.04   
      6   O               -0.00 -0.00  0.00    0.00  0.00 -0.00    0.00  0.00 -0.00   
      7   C                0.06 -0.09 -0.02    0.12 -0.36 -0.08   -0.15 -0.17 -0.03   
      8   C                0.01  0.11  0.02   -0.30  0.28  0.08    0.18  0.06  0.00   
      9   C               -0.12 -0.08 -0.01    0.17 -0.13 -0.04   -0.31 -0.18 -0.02   
     10   H                0.40  0.18  0.01   -0.05 -0.27 -0.06    0.41  0.18  0.01   
     11   C               -0.06  0.01 -0.01    0.00 -0.00  0.01    0.01  0.01  0.01   
     12   H                0.33 -0.31  0.29   -0.07  0.04 -0.14   -0.03  0.03 -0.08   
     13   H                0.46  0.27  0.02   -0.09 -0.07 -0.04   -0.05 -0.06 -0.06   
     14   C                0.01  0.01 -0.01   -0.00 -0.00  0.00   -0.01 -0.01  0.00   
     15   O               -0.00 -0.00  0.00    0.00  0.00 -0.00    0.00  0.00 -0.00   
     16   H               -0.01 -0.02  0.01    0.00  0.00 -0.00    0.00 -0.00 -0.00   
     17   CL              -0.00 -0.00 -0.00    0.00 -0.00 -0.00   -0.00 -0.00 -0.00   
     18   CL              -0.01  0.00  0.00    0.01 -0.00 -0.00   -0.00 -0.00 -0.00   
     19   CL              -0.00  0.00  0.00   -0.00  0.00  0.00    0.00  0.00  0.00   

  Vibration                       52                  53                  54          
  Freq [cm^-1]                2054.7696           3290.3919           3363.2536       
  Irrep                           A                   A                   A           
  Reduced mass [u]             10.1519              1.0604              1.1105        
  Force const [mDyne/A]        25.2537              6.7640              7.4007        
  Turning point v=0 [a0]        0.0760              0.1858              0.1795        
  RMS dev v=0 [a0 u^1/2]        0.1712              0.1353              0.1338        
  Char temp [K]               2956.3514           4734.1342           4838.9657       
  ----------------------------------------------------------------------------------
      1   C                0.00  0.00  0.00    0.00  0.00  0.00    0.00  0.00  0.00   
      2   O                0.00  0.00  0.01    0.00  0.00  0.00    0.00  0.00 -0.00   
      3   C               -0.00 -0.01 -0.00   -0.00 -0.00 -0.00    0.00  0.00  0.00   
      4   C                0.00  0.00  0.00    0.00  0.00  0.00    0.00 -0.00 -0.00   
      5   H                0.00  0.00 -0.00    0.00 -0.00 -0.00   -0.00  0.00  0.00   
      6   O                0.12 -0.44 -0.03    0.00 -0.00  0.00   -0.00  0.00 -0.00   
      7   C               -0.00 -0.00 -0.00   -0.00 -0.00 -0.00    0.00 -0.00 -0.00   
      8   C               -0.00 -0.00 -0.00   -0.00  0.00  0.00   -0.00  0.00  0.00   
      9   C               -0.00 -0.00 -0.00   -0.00  0.00  0.00    0.00 -0.00 -0.00   
     10   H                0.00 -0.00 -0.00    0.00 -0.00 -0.00   -0.00  0.00  0.00   
     11   C                0.03 -0.06 -0.04    0.06 -0.03  0.01   -0.03 -0.09  0.03   
     12   H               -0.07  0.14  0.15   -0.37 -0.37  0.10    0.59  0.58 -0.17   
     13   H                0.09 -0.05 -0.10   -0.34  0.71 -0.30   -0.22  0.44 -0.18   
     14   C               -0.22  0.70  0.07   -0.00  0.00  0.00   -0.00 -0.00  0.00   
     15   O                0.01 -0.07  0.01    0.00  0.00 -0.00    0.00  0.00 -0.00   
     16   H                0.09  0.36 -0.19   -0.00  0.00  0.00   -0.00  0.00 -0.00   
     17   CL               0.00  0.00  0.00    0.00  0.00 -0.00   -0.00 -0.00 -0.00   
     18   CL              -0.00 -0.00  0.00   -0.00 -0.00 -0.00   -0.00 -0.00 -0.00   
     19   CL               0.00 -0.00  0.00    0.00 -0.00  0.00   -0.00  0.00  0.00   

  Vibration                       55                  56                  57          
  Freq [cm^-1]                3413.6532           3421.3845           4042.7653       
  Irrep                           A                   A                   A           
  Reduced mass [u]              1.0940              1.0941              1.0651        
  Force const [mDyne/A]         7.5110              7.5458             10.2566        
  Turning point v=0 [a0]        0.1796              0.1793              0.1672        
  RMS dev v=0 [a0 u^1/2]        0.1328              0.1326              0.1220        
  Char temp [K]               4911.4794           4922.6031           5816.6303       
  ----------------------------------------------------------------------------------
      1   C                0.00  0.00  0.00    0.00  0.00  0.00   -0.00 -0.00  0.00   
      2   O                0.00  0.00  0.00   -0.00 -0.00 -0.00   -0.00 -0.00 -0.00   
      3   C               -0.00 -0.00  0.00    0.00  0.00  0.00    0.00  0.00  0.00   
      4   C                0.04 -0.08 -0.02   -0.00  0.01  0.00   -0.00  0.00 -0.00   
      5   H               -0.44  0.87  0.19    0.03 -0.07 -0.01    0.00 -0.00  0.00   
      6   O                0.00 -0.00 -0.00    0.00  0.00 -0.00    0.00  0.00 -0.00   
      7   C                0.00  0.00  0.00   -0.00  0.00  0.00    0.00  0.00 -0.00   
      8   C               -0.00  0.00  0.00   -0.00 -0.00  0.00    0.00  0.00  0.00   
      9   C                0.00 -0.01 -0.00    0.04 -0.08 -0.02   -0.00 -0.00 -0.00   
     10   H               -0.03  0.07  0.02   -0.44  0.86  0.21   -0.00  0.00  0.00   
     11   C                0.00  0.00  0.00    0.00  0.00 -0.00    0.00 -0.00 -0.00   
     12   H               -0.00 -0.00  0.00   -0.00 -0.00  0.00    0.00  0.00  0.00   
     13   H               -0.00  0.00 -0.00    0.00 -0.00  0.00   -0.00  0.00 -0.00   
     14   C                0.00  0.00  0.00   -0.00  0.00 -0.00   -0.00  0.00  0.00   
     15   O               -0.00 -0.00  0.00    0.00  0.00  0.00   -0.04  0.03  0.04   
     16   H                0.00 -0.00 -0.00   -0.00  0.00  0.00    0.66 -0.42 -0.62   
     17   CL              -0.00 -0.00  0.00    0.00  0.00  0.00    0.00 -0.00 -0.00   
     18   CL               0.00  0.00 -0.00   -0.00 -0.00  0.00   -0.00 -0.00 -0.00   
     19   CL              -0.00  0.00  0.00    0.00 -0.00  0.00   -0.00 -0.00  0.00   

  ==> Thermochemistry Components <==

  Entropy, S
    Electronic S            0.000 [cal/(mol K)]        0.000 [J/(mol K)]       0.00000000 [mEh/K] (multiplicity = 1)
    Translational S        42.496 [cal/(mol K)]      177.803 [J/(mol K)]       0.06772143 [mEh/K] (mol. weight = 253.9304 [u], P = 101325.00 [Pa])
    Rotational S           33.166 [cal/(mol K)]      138.768 [J/(mol K)]       0.05285384 [mEh/K] (symmetry no. = 1)
    Vibrational S          36.299 [cal/(mol K)]      151.875 [J/(mol K)]       0.05784625 [mEh/K]
  Total S                 111.961 [cal/(mol K)]      468.446 [J/(mol K)]       0.17842153 [mEh/K]
  Correction S              0.000 [cal/(mol K)]        0.000 [J/(mol K)]       0.00000000 [mEh/K]

  Constant volume heat capacity, Cv
    Electronic Cv           0.000 [cal/(mol K)]        0.000 [J/(mol K)]       0.00000000 [mEh/K]
    Translational Cv        2.981 [cal/(mol K)]       12.472 [J/(mol K)]       0.00475022 [mEh/K]
    Rotational Cv           2.981 [cal/(mol K)]       12.472 [J/(mol K)]       0.00475022 [mEh/K]
    Vibrational Cv         36.075 [cal/(mol K)]      150.937 [J/(mol K)]       0.05748905 [mEh/K]
  Total Cv                 42.037 [cal/(mol K)]      175.881 [J/(mol K)]       0.06698949 [mEh/K]
  Correction Cv             0.000 [cal/(mol K)]        0.000 [J/(mol K)]       0.00000000 [mEh/K]

  Constant pressure heat capacity, Cp
    Electronic Cp           0.000 [cal/(mol K)]        0.000 [J/(mol K)]       0.00000000 [mEh/K]
    Translational Cp        4.968 [cal/(mol K)]       20.786 [J/(mol K)]       0.00791704 [mEh/K]
    Rotational Cp           2.981 [cal/(mol K)]       12.472 [J/(mol K)]       0.00475022 [mEh/K]
    Vibrational Cp         36.075 [cal/(mol K)]      150.937 [J/(mol K)]       0.05748905 [mEh/K]
  Total Cp                 44.024 [cal/(mol K)]      184.195 [J/(mol K)]       0.07015631 [mEh/K]
  Correction Cp             0.000 [cal/(mol K)]        0.000 [J/(mol K)]       0.00000000 [mEh/K]

  ==> Thermochemistry Energy Analysis <==

  Raw electronic energy, E0
  Total E0, Electronic energy at well bottom at 0 [K]                -1908.87498665 [Eh]

  Zero-point energy, ZPE_vib = Sum_i nu_i / 2
    Electronic ZPE          0.000 [kcal/mol]        0.000 [kJ/mol]       0.00000000 [Eh]
    Translational ZPE       0.000 [kcal/mol]        0.000 [kJ/mol]       0.00000000 [Eh]
    Rotational ZPE          0.000 [kcal/mol]        0.000 [kJ/mol]       0.00000000 [Eh]
    Vibrational ZPE        81.254 [kcal/mol]      339.965 [kJ/mol]       0.12948587 [Eh]       28418.859 [cm^-1]
  Correction ZPE           81.254 [kcal/mol]      339.965 [kJ/mol]       0.12948587 [Eh]       28418.859 [cm^-1]
  Total ZPE, Electronic energy at 0 [K]                              -1908.74550078 [Eh]

  Thermal Energy, E (includes ZPE)
    Electronic E            0.000 [kcal/mol]        0.000 [kJ/mol]       0.00000000 [Eh]
    Translational E         0.889 [kcal/mol]        3.718 [kJ/mol]       0.00141628 [Eh]
    Rotational E            0.889 [kcal/mol]        3.718 [kJ/mol]       0.00141628 [Eh]
    Vibrational E          86.810 [kcal/mol]      363.212 [kJ/mol]       0.13834006 [Eh]
  Correction E             88.587 [kcal/mol]      370.649 [kJ/mol]       0.14117262 [Eh]
  Total E, Electronic energy at  298.15 [K]                          -1908.73381403 [Eh]

  Enthalpy, H_trans = E_trans + k_B * T
    Electronic H            0.000 [kcal/mol]        0.000 [kJ/mol]       0.00000000 [Eh]
    Translational H         1.481 [kcal/mol]        6.197 [kJ/mol]       0.00236046 [Eh]
    Rotational H            0.889 [kcal/mol]        3.718 [kJ/mol]       0.00141628 [Eh]
    Vibrational H          86.810 [kcal/mol]      363.212 [kJ/mol]       0.13834006 [Eh]
  Correction H             89.180 [kcal/mol]      373.128 [kJ/mol]       0.14211681 [Eh]
  Total H, Enthalpy at  298.15 [K]                                   -1908.73286984 [Eh]

  Gibbs free energy, G = H - T * S
    Electronic G            0.000 [kcal/mol]        0.000 [kJ/mol]       0.00000000 [Eh]
    Translational G       -11.189 [kcal/mol]      -46.814 [kJ/mol]      -0.01783068 [Eh]
    Rotational G           -9.000 [kcal/mol]      -37.655 [kJ/mol]      -0.01434209 [Eh]
    Vibrational G          75.987 [kcal/mol]      317.930 [kJ/mol]       0.12109320 [Eh]
  Correction G             55.798 [kcal/mol]      233.461 [kJ/mol]       0.08892043 [Eh]
  Total G, Free enthalpy at  298.15 [K]                              -1908.78606622 [Eh]

    Psi4 stopped on: Thursday, 27 September 2018 01:10PM
    Psi4 wall time for execution: 0:21:35.97

*** Psi4 exiting successfully. Buy a developer a beer!
