
    -----------------------------------------------------------------------
          Psi4: An Open-Source Ab Initio Electronic Structure Package
                               Psi4 1.2.1 release

                         Git: Rev {HEAD} 406f4de 


    R. M. Parrish, L. A. Burns, D. G. A. Smith, A. C. Simmonett,
    A. E. DePrince III, E. G. Hohenstein, U. Bozkaya, A. Yu. Sokolov,
    R. Di Remigio, R. M. Richard, J. F. Gonthier, A. M. James,
    H. R. McAlexander, A. Kumar, M. Saitow, X. Wang, B. P. Pritchard,
    P. Verma, H. F. Schaefer III, K. Patkowski, R. A. King, E. F. Valeev,
    F. A. Evangelista, J. M. Turney, T. D. Crawford, and C. D. Sherrill,
    J. Chem. Theory Comput. 13(7) pp 3185--3197 (2017).
    (doi: 10.1021/acs.jctc.7b00174)


                         Additional Contributions by
    P. Kraus, H. Kruse, M. H. Lechner, M. C. Schieber, and R. A. Shaw

    -----------------------------------------------------------------------


    Psi4 started on: Wednesday, 26 September 2018 03:52PM

    Process ID: 433925
    Host:       wr53
    PSIDATADIR: /usr/local/hpc1/software_molmod/psi4/psi4conda/share/psi4
    Memory:     500.0 MiB
    Threads:    16
    
  ==> Input File <==

--------------------------------------------------------------------------
memory 110 Gb

molecule conf3 {
    C           -0.219916617788    -1.221600510791     0.237671645473
    O           -1.065208929071     0.696193923991     1.393132574347
    C           -0.200960081850     0.138673278275     0.514594485549
    C            0.756452932523     0.933639842593    -0.087479973455
    H            0.782589921267     1.980291611214     0.146024011554
    O           -2.707209949705     2.024163831380     3.066170009571
    C            1.682934736203     0.393482484954    -0.961771392693
    C            1.654806084279    -0.965017896311    -1.238755316184
    C            0.702740960314    -1.766704002991    -0.632571561586
    H            0.685209609892    -2.818186432750    -0.839904015060
    C           -2.286009351916     1.131008082126     0.868227625106
    H           -2.873331997316     0.304623395192     0.486766512468
    H           -2.137255439898     1.839839080118     0.059786120087
    C           -3.069208388154     1.817552429863     1.961957535179
    O           -4.259443092680     2.181102138402     1.491485558632
    H           -4.740005840805     2.618715764890     2.187856605093
    CL           2.784085054598    -1.705369524744    -2.322717909929
    CL          -1.388384096265    -2.256506788629     0.992790198284
    CL           2.852836201602     1.448587224617    -1.677929658604
}
set globals {
  reference rhf
  g_convergence gau_tight
  basis 6-31G(d)
}
frequency('hf', dertype=1)
--------------------------------------------------------------------------

  Memory set to 102.445 GiB by Python driver.
gradient() will perform analytic gradient computation.

*** tstart() called on wr53
*** at Wed Sep 26 15:52:24 2018

   => Loading Basis Set <=

    Name: 6-31G(D)
    Role: ORBITAL
    Keyword: BASIS
    atoms 1, 3-4, 7-9, 11, 14 entry C          line   111 file /usr/local/hpc1/software_molmod/psi4/psi4conda/share/psi4/basis/6-31g_d_.gbs 
    atoms 2, 6, 15            entry O          line   145 file /usr/local/hpc1/software_molmod/psi4/psi4conda/share/psi4/basis/6-31g_d_.gbs 
    atoms 5, 10, 12-13, 16    entry H          line    44 file /usr/local/hpc1/software_molmod/psi4/psi4conda/share/psi4/basis/6-31g_d_.gbs 
    atoms 17-19               entry CL         line   340 file /usr/local/hpc1/software_molmod/psi4/psi4conda/share/psi4/basis/6-31g_d_.gbs 

    There are an even number of electrons - assuming singlet.
    Specify the multiplicity in the molecule input block.


         ---------------------------------------------------------
                                   SCF
            by Justin Turney, Rob Parrish, Andy Simmonett
                             and Daniel Smith
                              RHF Reference
                       16 Threads, 104904 MiB Core
         ---------------------------------------------------------

  ==> Geometry <==

    Molecular point group: c1
    Full point group: C1

    Geometry (in Angstrom), charge = 0, multiplicity = 1:

       Center              X                  Y                   Z               Mass       
    ------------   -----------------  -----------------  -----------------  -----------------
         C           -0.219916617788    -1.221600510791     0.237671645473    12.000000000000
         O           -1.065208929071     0.696193923991     1.393132574347    15.994914619560
         C           -0.200960081850     0.138673278275     0.514594485549    12.000000000000
         C            0.756452932523     0.933639842593    -0.087479973455    12.000000000000
         H            0.782589921267     1.980291611214     0.146024011554     1.007825032070
         O           -2.707209949705     2.024163831380     3.066170009571    15.994914619560
         C            1.682934736203     0.393482484954    -0.961771392693    12.000000000000
         C            1.654806084279    -0.965017896311    -1.238755316184    12.000000000000
         C            0.702740960314    -1.766704002991    -0.632571561586    12.000000000000
         H            0.685209609892    -2.818186432750    -0.839904015060     1.007825032070
         C           -2.286009351916     1.131008082126     0.868227625106    12.000000000000
         H           -2.873331997316     0.304623395192     0.486766512468     1.007825032070
         H           -2.137255439898     1.839839080118     0.059786120087     1.007825032070
         C           -3.069208388154     1.817552429863     1.961957535179    12.000000000000
         O           -4.259443092680     2.181102138402     1.491485558632    15.994914619560
         H           -4.740005840805     2.618715764890     2.187856605093     1.007825032070
         CL           2.784085054598    -1.705369524744    -2.322717909929    34.968852682000
         CL          -1.388384096265    -2.256506788629     0.992790198284    34.968852682000
         CL           2.852836201602     1.448587224617    -1.677929658604    34.968852682000

  Running in c1 symmetry.

  Rotational constants: A =      0.02718  B =      0.00812  C =      0.00654 [cm^-1]
  Rotational constants: A =    814.72111  B =    243.28358  C =    195.91980 [MHz]
  Nuclear repulsion = 1165.832713500226191

  Charge       = 0
  Multiplicity = 1
  Electrons    = 128
  Nalpha       = 64
  Nbeta        = 64

  ==> Algorithm <==

  SCF Algorithm Type is DF.
  DIIS enabled.
  MOM disabled.
  Fractional occupation disabled.
  Guess Type is SAD.
  Energy threshold   = 1.00e-08
  Density threshold  = 1.00e-08
  Integral threshold = 0.00e+00

  ==> Primary Basis <==

  Basis Set: 6-31G(D)
    Blend: 6-31G(D)
    Number of shells: 100
    Number of basis function: 232
    Number of Cartesian functions: 232
    Spherical Harmonics?: false
    Max angular momentum: 2

   => Loading Basis Set <=

    Name: (6-31G(D) AUX)
    Role: JKFIT
    Keyword: DF_BASIS_SCF
    atoms 1, 3-4, 7-9, 11, 14 entry C          line   121 file /usr/local/hpc1/software_molmod/psi4/psi4conda/share/psi4/basis/cc-pvdz-jkfit.gbs 
    atoms 2, 6, 15            entry O          line   221 file /usr/local/hpc1/software_molmod/psi4/psi4conda/share/psi4/basis/cc-pvdz-jkfit.gbs 
    atoms 5, 10, 12-13, 16    entry H          line    51 file /usr/local/hpc1/software_molmod/psi4/psi4conda/share/psi4/basis/cc-pvdz-jkfit.gbs 
    atoms 17-19               entry CL         line   667 file /usr/local/hpc1/software_molmod/psi4/psi4conda/share/psi4/basis/cc-pvdz-jkfit.gbs 

  ==> Pre-Iterations <==

   -------------------------------------------------------
    Irrep   Nso     Nmo     Nalpha   Nbeta   Ndocc  Nsocc
   -------------------------------------------------------
     A        232     232       0       0       0       0
   -------------------------------------------------------
    Total     232     232      64      64      64       0
   -------------------------------------------------------

  ==> Integral Setup <==

  ==> DiskDFJK: Density-Fitted J/K Matrices <==

    J tasked:                  Yes
    K tasked:                  Yes
    wK tasked:                  No
    OpenMP threads:             16
    Integrals threads:          16
    Memory (MB):             78678
    Algorithm:                Core
    Integral Cache:           NONE
    Schwarz Cutoff:          1E-12
    Fitting Condition:       1E-12

   => Auxiliary Basis Set <=

  Basis Set: (6-31G(D) AUX)
    Blend: CC-PVDZ-JKFIT
    Number of shells: 417
    Number of basis function: 1406
    Number of Cartesian functions: 1406
    Spherical Harmonics?: false
    Max angular momentum: 3

  Minimum eigenvalue in the overlap matrix is 3.6813887967E-04.
  Using Symmetric Orthogonalization.

  SCF Guess: Superposition of Atomic Densities via on-the-fly atomic UHF.

  ==> Iterations <==

                           Total Energy        Delta E     RMS |[F,P]|

   @DF-RHF iter   0: -1914.41644643719019   -1.91442e+03   4.30943e-02 
   @DF-RHF iter   1: -1908.48498973066989    5.93146e+00   4.99391e-03 
   @DF-RHF iter   2: -1908.78990906022364   -3.04919e-01   3.90732e-03 DIIS
   @DF-RHF iter   3: -1908.86295156367055   -7.30425e-02   9.47840e-04 DIIS
   @DF-RHF iter   4: -1908.87737582745922   -1.44243e-02   3.87644e-04 DIIS
   @DF-RHF iter   5: -1908.87873507667337   -1.35925e-03   9.88191e-05 DIIS
   @DF-RHF iter   6: -1908.87899373839173   -2.58662e-04   4.02489e-05 DIIS
   @DF-RHF iter   7: -1908.87903546155167   -4.17232e-05   1.84193e-05 DIIS
   @DF-RHF iter   8: -1908.87903984243212   -4.38088e-06   5.06407e-06 DIIS
   @DF-RHF iter   9: -1908.87904059023845   -7.47806e-07   2.51586e-06 DIIS
   @DF-RHF iter  10: -1908.87904075282813   -1.62590e-07   9.00177e-07 DIIS
   @DF-RHF iter  11: -1908.87904077810572   -2.52776e-08   3.15178e-07 DIIS
   @DF-RHF iter  12: -1908.87904078222846   -4.12274e-09   1.32379e-07 DIIS
   @DF-RHF iter  13: -1908.87904078292559   -6.97128e-10   6.33445e-08 DIIS
   @DF-RHF iter  14: -1908.87904078306337   -1.37788e-10   2.19428e-08 DIIS
   @DF-RHF iter  15: -1908.87904078308225   -1.88720e-11   9.27054e-09 DIIS

  ==> Post-Iterations <==

    Orbital Energies [Eh]
    ---------------------

    Doubly Occupied:                                                      

       1A   -104.848853     2A   -104.847886     3A   -104.846871  
       4A    -20.632487     5A    -20.614546     6A    -20.570799  
       7A    -11.401525     8A    -11.337852     9A    -11.337213  
      10A    -11.333868    11A    -11.328899    12A    -11.323082  
      13A    -11.284108    14A    -11.275940    15A    -10.581892  
      16A    -10.581155    17A    -10.580092    18A     -8.051342  
      19A     -8.050599    20A     -8.049538    21A     -8.047883  
      22A     -8.047813    23A     -8.047066    24A     -8.047043  
      25A     -8.046001    26A     -8.045995    27A     -1.496440  
      28A     -1.449853    29A     -1.387292    30A     -1.244744  
      31A     -1.187156    32A     -1.154799    33A     -1.114755  
      34A     -1.057278    35A     -1.023406    36A     -0.983403  
      37A     -0.884829    38A     -0.857279    39A     -0.820185  
      40A     -0.750234    41A     -0.739950    42A     -0.720160  
      43A     -0.706016    44A     -0.687346    45A     -0.674950  
      46A     -0.651534    47A     -0.631592    48A     -0.621640  
      49A     -0.609403    50A     -0.594586    51A     -0.577430  
      52A     -0.563240    53A     -0.556998    54A     -0.529200  
      55A     -0.501254    56A     -0.497598    57A     -0.487647  
      58A     -0.481629    59A     -0.472293    60A     -0.464661  
      61A     -0.460462    62A     -0.457626    63A     -0.367274  
      64A     -0.346862  

    Virtual:                                                              

      65A      0.095736    66A      0.104979    67A      0.148511  
      68A      0.179631    69A      0.203686    70A      0.217509  
      71A      0.233241    72A      0.237582    73A      0.282224  
      74A      0.297514    75A      0.307778    76A      0.319032  
      77A      0.326157    78A      0.381136    79A      0.417570  
      80A      0.431096    81A      0.439321    82A      0.465522  
      83A      0.477448    84A      0.480972    85A      0.508029  
      86A      0.529314    87A      0.543505    88A      0.571735  
      89A      0.584502    90A      0.597424    91A      0.600561  
      92A      0.619361    93A      0.624253    94A      0.637611  
      95A      0.652501    96A      0.660111    97A      0.672948  
      98A      0.684401    99A      0.702233   100A      0.719408  
     101A      0.737080   102A      0.759845   103A      0.770704  
     104A      0.783475   105A      0.798582   106A      0.807744  
     107A      0.813673   108A      0.847877   109A      0.855753  
     110A      0.876652   111A      0.890050   112A      0.914946  
     113A      0.942836   114A      0.948810   115A      0.962435  
     116A      0.967363   117A      0.985019   118A      1.007984  
     119A      1.019514   120A      1.041886   121A      1.053543  
     122A      1.069553   123A      1.079940   124A      1.092472  
     125A      1.107582   126A      1.112816   127A      1.117235  
     128A      1.126723   129A      1.130857   130A      1.131835  
     131A      1.140397   132A      1.148871   133A      1.169339  
     134A      1.185559   135A      1.194641   136A      1.201262  
     137A      1.217830   138A      1.226121   139A      1.247800  
     140A      1.258170   141A      1.282326   142A      1.289318  
     143A      1.299196   144A      1.326167   145A      1.331730  
     146A      1.347440   147A      1.366135   148A      1.414804  
     149A      1.420939   150A      1.428325   151A      1.439040  
     152A      1.478856   153A      1.516705   154A      1.552437  
     155A      1.563364   156A      1.594589   157A      1.616376  
     158A      1.646090   159A      1.659172   160A      1.674103  
     161A      1.677189   162A      1.696027   163A      1.750452  
     164A      1.783114   165A      1.785587   166A      1.795176  
     167A      1.823391   168A      1.877802   169A      1.901340  
     170A      1.968238   171A      1.996908   172A      2.029126  
     173A      2.052566   174A      2.057672   175A      2.063749  
     176A      2.087002   177A      2.115528   178A      2.154776  
     179A      2.189979   180A      2.208566   181A      2.222819  
     182A      2.229287   183A      2.264481   184A      2.326482  
     185A      2.338427   186A      2.363158   187A      2.385739  
     188A      2.402182   189A      2.413306   190A      2.425986  
     191A      2.462391   192A      2.471913   193A      2.531140  
     194A      2.538065   195A      2.583597   196A      2.598012  
     197A      2.641812   198A      2.711552   199A      2.775773  
     200A      2.802082   201A      2.815131   202A      2.840815  
     203A      2.886040   204A      2.968226   205A      3.001354  
     206A      3.023058   207A      3.057791   208A      3.069560  
     209A      3.096645   210A      3.107115   211A      3.186235  
     212A      3.193858   213A      3.240151   214A      3.344184  
     215A      3.471255   216A      3.487433   217A      3.532564  
     218A      3.711581   219A      4.249901   220A      4.425402  
     221A      4.447324   222A      4.476562   223A      4.522442  
     224A      4.608678   225A      4.655678   226A      4.684532  
     227A      4.723642   228A      4.746446   229A      4.799316  
     230A      4.876947   231A      4.899558   232A      5.152217  

    Final Occupation by Irrep:
              A 
    DOCC [    64 ]

  Energy converged.

  @DF-RHF Final Energy: -1908.87904078308225

   => Energetics <=

    Nuclear Repulsion Energy =           1165.8327135002261912
    One-Electron Energy =               -4949.4768043583708277
    Two-Electron Energy =                1874.7650500750621632
    Total Energy =                      -1908.8790407830822460



Properties will be evaluated at   0.000000,   0.000000,   0.000000 [a0]

Properties computed using the SCF density matrix

  Nuclear Dipole Moment: [e a0]
     X:   -11.6927      Y:     6.0041      Z:     4.6950

  Electronic Dipole Moment: [e a0]
     X:    10.6915      Y:    -5.7279      Z:    -5.3201

  Dipole Moment: [e a0]
     X:    -1.0012      Y:     0.2763      Z:    -0.6251     Total:     1.2122

  Dipole Moment: [D]
     X:    -2.5448      Y:     0.7022      Z:    -1.5887     Total:     3.0811


*** tstop() called on wr53 at Wed Sep 26 15:52:38 2018
Module time:
	user time   =      95.62 seconds =       1.59 minutes
	system time =       6.76 seconds =       0.11 minutes
	total time  =         14 seconds =       0.23 minutes
Total time:
	user time   =      95.62 seconds =       1.59 minutes
	system time =       6.76 seconds =       0.11 minutes
	total time  =         14 seconds =       0.23 minutes

*** tstart() called on wr53
*** at Wed Sep 26 15:52:38 2018


         ------------------------------------------------------------
                                   SCF GRAD                          
                          Rob Parrish, Justin Turney,                
                       Andy Simmonett, and Alex Sokolov              
         ------------------------------------------------------------

  ==> Geometry <==

    Molecular point group: c1
    Full point group: C1

    Geometry (in Angstrom), charge = 0, multiplicity = 1:

       Center              X                  Y                   Z               Mass       
    ------------   -----------------  -----------------  -----------------  -----------------
         C           -0.219916617788    -1.221600510791     0.237671645473    12.000000000000
         O           -1.065208929071     0.696193923991     1.393132574347    15.994914619560
         C           -0.200960081850     0.138673278275     0.514594485549    12.000000000000
         C            0.756452932523     0.933639842593    -0.087479973455    12.000000000000
         H            0.782589921267     1.980291611214     0.146024011554     1.007825032070
         O           -2.707209949705     2.024163831380     3.066170009571    15.994914619560
         C            1.682934736203     0.393482484954    -0.961771392693    12.000000000000
         C            1.654806084279    -0.965017896311    -1.238755316184    12.000000000000
         C            0.702740960314    -1.766704002991    -0.632571561586    12.000000000000
         H            0.685209609892    -2.818186432750    -0.839904015060     1.007825032070
         C           -2.286009351916     1.131008082126     0.868227625106    12.000000000000
         H           -2.873331997316     0.304623395192     0.486766512468     1.007825032070
         H           -2.137255439898     1.839839080118     0.059786120087     1.007825032070
         C           -3.069208388154     1.817552429863     1.961957535179    12.000000000000
         O           -4.259443092680     2.181102138402     1.491485558632    15.994914619560
         H           -4.740005840805     2.618715764890     2.187856605093     1.007825032070
         CL           2.784085054598    -1.705369524744    -2.322717909929    34.968852682000
         CL          -1.388384096265    -2.256506788629     0.992790198284    34.968852682000
         CL           2.852836201602     1.448587224617    -1.677929658604    34.968852682000

  Nuclear repulsion = 1165.832713500226191

  ==> Basis Set <==

  Basis Set: 6-31G(D)
    Blend: 6-31G(D)
    Number of shells: 100
    Number of basis function: 232
    Number of Cartesian functions: 232
    Spherical Harmonics?: false
    Max angular momentum: 2

  ==> DFJKGrad: Density-Fitted SCF Gradients <==

    Gradient:                    1
    J tasked:                  Yes
    K tasked:                  Yes
    wK tasked:                  No
    OpenMP threads:             16
    Integrals threads:          16
    Memory (MB):             78678
    Schwarz Cutoff:          0E+00
    Fitting Condition:       1E-12

   => Auxiliary Basis Set <=

  Basis Set: (6-31G(D) AUX)
    Blend: CC-PVDZ-JKFIT
    Number of shells: 417
    Number of basis function: 1406
    Number of Cartesian functions: 1406
    Spherical Harmonics?: false
    Max angular momentum: 3


  -Total Gradient:
     Atom            X                  Y                   Z
    ------   -----------------  -----------------  -----------------
       1        0.000000073837     0.000000113197     0.000000471652
       2        0.000000861593    -0.000000916118     0.000000705401
       3       -0.000001826318     0.000001382679    -0.000001585892
       4       -0.000000736462     0.000000113171    -0.000000589056
       5       -0.000000191452    -0.000000022368    -0.000000173737
       6       -0.000000292032    -0.000000107319    -0.000000729557
       7        0.000002228614    -0.000000440025     0.000002900000
       8        0.000000868149     0.000000015995     0.000000669237
       9       -0.000000542142    -0.000000331786    -0.000000390435
      10       -0.000000083789    -0.000000046474    -0.000000090711
      11        0.000000404551     0.000001351711    -0.000001503922
      12        0.000000109680    -0.000000374172     0.000000420903
      13       -0.000000160985    -0.000000417714     0.000000191036
      14        0.000000303677    -0.000000223142     0.000001618976
      15        0.000000182656     0.000000215731    -0.000000253549
      16        0.000000078368    -0.000000218183    -0.000000133380
      17       -0.000000521536     0.000000020444    -0.000000662649
      18        0.000000128755    -0.000000256100    -0.000000033961
      19       -0.000000885216     0.000000140468    -0.000000830367


*** tstop() called on wr53 at Wed Sep 26 15:52:47 2018
Module time:
	user time   =      64.09 seconds =       1.07 minutes
	system time =       1.85 seconds =       0.03 minutes
	total time  =          9 seconds =       0.15 minutes
Total time:
	user time   =     159.73 seconds =       2.66 minutes
	system time =       8.61 seconds =       0.14 minutes
	total time  =         23 seconds =       0.38 minutes

  Based on options and gradient (rms=9.08E-07), recommend projecting translations and projecting rotations.
hessian() will perform frequency computation by finite difference of analytic gradients.

-------------------------------------------------------------

  Using finite-differences of gradients to determine vibrational frequencies and 
  normal modes.  Resulting frequencies are only valid at stationary points.
	Generating geometries for use with 3-point formula.
	Displacement size will be 5.00e-03.
	Number of atoms is 19.
	Number of irreps is 1.
	Number of SALCS is 51.
	Translations projected? 1. Rotations projected? 1.
	Index of salcs per irrep:
	 1 :  0  1  2  3  4  5  6  7  8  9  10  11  12  13  14  15  16  17  18  19  20  21  22  23  24  25  26  27  28  29  30  31  32  33  34  35  36  37  38  39  40  41  42  43  44  45  46  47  48  49  50 
	Number of SALC's per irrep:
		 Irrep 1: 51
	Number of geometries (including reference) is 103.
	Number of displacements per irrep:
	  Irrep 1: 102

  //>>>>>>>>>>>>>>>>>>>>>>>>>>>>>>>>>>>//
  //   Loading displacement 1 of 103   //
  //<<<<<<<<<<<<<<<<<<<<<<<<<<<<<<<<<<<//
gradient() will perform analytic gradient computation.

*** tstart() called on wr53
*** at Wed Sep 26 15:52:47 2018

   => Loading Basis Set <=

    Name: 6-31G(D)
    Role: ORBITAL
    Keyword: BASIS
    atoms 1, 3-4, 7-9, 11, 14 entry C          line   111 file /usr/local/hpc1/software_molmod/psi4/psi4conda/share/psi4/basis/6-31g_d_.gbs 
    atoms 2, 6, 15            entry O          line   145 file /usr/local/hpc1/software_molmod/psi4/psi4conda/share/psi4/basis/6-31g_d_.gbs 
    atoms 5, 10, 12-13, 16    entry H          line    44 file /usr/local/hpc1/software_molmod/psi4/psi4conda/share/psi4/basis/6-31g_d_.gbs 
    atoms 17-19               entry CL         line   340 file /usr/local/hpc1/software_molmod/psi4/psi4conda/share/psi4/basis/6-31g_d_.gbs 


         ---------------------------------------------------------
                                   SCF
            by Justin Turney, Rob Parrish, Andy Simmonett
                             and Daniel Smith
                              RHF Reference
                       16 Threads, 104904 MiB Core
         ---------------------------------------------------------

  ==> Geometry <==

    Molecular point group: c1
    Full point group: C1

    Geometry (in Angstrom), charge = 0, multiplicity = 1:

       Center              X                  Y                   Z               Mass       
    ------------   -----------------  -----------------  -----------------  -----------------
         C           -0.220656304676    -1.221600903923     0.237680491201    12.000000000000
         O           -1.065173552167     0.696193634872     1.393131270015    15.994914619560
         C           -0.200922443332     0.138674904550     0.514594190536    12.000000000000
         C            0.756481524423     0.933646068670    -0.087488580830    12.000000000000
         H            0.782609823430     1.980299631475     0.146008334653     1.007825032070
         O           -2.707181276736     2.024159929129     3.066164993585    15.994914619560
         C            1.682965446730     0.393491215038    -0.961779302004    12.000000000000
         C            1.654848155539    -0.965011268615    -1.238754067804    12.000000000000
         C            0.702792151583    -1.766701899518    -0.632561972770    12.000000000000
         H            0.685269616535    -2.818185871265    -0.839887351480     1.007825032070
         C           -2.285979537076     1.130993298257     0.868227249794    12.000000000000
         H           -2.873295940139     0.304600777202     0.486773497624     1.007825032070
         H           -2.137234543971     1.839820238246     0.059780545683     1.007825032070
         C           -3.069181321040     1.817537896894     1.961955034781    12.000000000000
         O           -4.259420775205     2.181073749253     1.491484367079    15.994914619560
         H           -4.739985277247     2.618687698393     2.187854000409     1.007825032070
         CL           2.784130388650    -1.705359967097    -2.322715263522    34.968852682000
         CL          -1.388323393766    -2.256512659888     0.992809620679    34.968852682000
         CL           2.852855165486     1.448601705839    -1.677948283929    34.968852682000

  Running in c1 symmetry.

  Rotational constants: A =      0.02718  B =      0.00812  C =      0.00654 [cm^-1]
  Rotational constants: A =    814.71537  B =    243.28377  C =    195.91937 [MHz]
  Nuclear repulsion = 1165.832591019019674

  Charge       = 0
  Multiplicity = 1
  Electrons    = 128
  Nalpha       = 64
  Nbeta        = 64

  ==> Algorithm <==

  SCF Algorithm Type is DF.
  DIIS enabled.
  MOM disabled.
  Fractional occupation disabled.
  Guess Type is SAD.
  Energy threshold   = 1.00e-08
  Density threshold  = 1.00e-08
  Integral threshold = 0.00e+00

  ==> Primary Basis <==

  Basis Set: 6-31G(D)
    Blend: 6-31G(D)
    Number of shells: 100
    Number of basis function: 232
    Number of Cartesian functions: 232
    Spherical Harmonics?: false
    Max angular momentum: 2

   => Loading Basis Set <=

    Name: (6-31G(D) AUX)
    Role: JKFIT
    Keyword: DF_BASIS_SCF
    atoms 1, 3-4, 7-9, 11, 14 entry C          line   121 file /usr/local/hpc1/software_molmod/psi4/psi4conda/share/psi4/basis/cc-pvdz-jkfit.gbs 
    atoms 2, 6, 15            entry O          line   221 file /usr/local/hpc1/software_molmod/psi4/psi4conda/share/psi4/basis/cc-pvdz-jkfit.gbs 
    atoms 5, 10, 12-13, 16    entry H          line    51 file /usr/local/hpc1/software_molmod/psi4/psi4conda/share/psi4/basis/cc-pvdz-jkfit.gbs 
    atoms 17-19               entry CL         line   667 file /usr/local/hpc1/software_molmod/psi4/psi4conda/share/psi4/basis/cc-pvdz-jkfit.gbs 

  ==> Pre-Iterations <==

   -------------------------------------------------------
    Irrep   Nso     Nmo     Nalpha   Nbeta   Ndocc  Nsocc
   -------------------------------------------------------
     A        232     232       0       0       0       0
   -------------------------------------------------------
    Total     232     232      64      64      64       0
   -------------------------------------------------------

  ==> Integral Setup <==

  ==> DiskDFJK: Density-Fitted J/K Matrices <==

    J tasked:                  Yes
    K tasked:                  Yes
    wK tasked:                  No
    OpenMP threads:             16
    Integrals threads:          16
    Memory (MB):             78678
    Algorithm:                Core
    Integral Cache:           NONE
    Schwarz Cutoff:          1E-12
    Fitting Condition:       1E-12

   => Auxiliary Basis Set <=

  Basis Set: (6-31G(D) AUX)
    Blend: CC-PVDZ-JKFIT
    Number of shells: 417
    Number of basis function: 1406
    Number of Cartesian functions: 1406
    Spherical Harmonics?: false
    Max angular momentum: 3

  Minimum eigenvalue in the overlap matrix is 3.6846914632E-04.
  Using Symmetric Orthogonalization.

  SCF Guess: Superposition of Atomic Densities via on-the-fly atomic UHF.

  ==> Iterations <==

                           Total Energy        Delta E     RMS |[F,P]|

   @DF-RHF iter   0: -1914.62953265632495   -1.91463e+03   6.41710e-02 
   @DF-RHF iter   1: -1908.47829390610968    6.15124e+00   7.08589e-03 
   @DF-RHF iter   2: -1908.78183734824893   -3.03543e-01   2.98150e-03 DIIS
   @DF-RHF iter   3: -1908.86085811030307   -7.90208e-02   8.42351e-04 DIIS
   @DF-RHF iter   4: -1908.87665385911396   -1.57957e-02   3.08212e-04 DIIS
   @DF-RHF iter   5: -1908.87858512713728   -1.93127e-03   1.45318e-04 DIIS
   @DF-RHF iter   6: -1908.87897294131085   -3.87814e-04   4.41119e-05 DIIS
   @DF-RHF iter   7: -1908.87903082874300   -5.78874e-05   1.69546e-05 DIIS
   @DF-RHF iter   8: -1908.87903840290278   -7.57416e-06   8.38070e-06 DIIS
   @DF-RHF iter   9: -1908.87903992854035   -1.52564e-06   3.40042e-06 DIIS
   @DF-RHF iter  10: -1908.87904022027442   -2.91734e-07   1.13182e-06 DIIS
   @DF-RHF iter  11: -1908.87904026233286   -4.20584e-08   3.54626e-07 DIIS
   @DF-RHF iter  12: -1908.87904026635829   -4.02542e-09   1.48101e-07 DIIS
   @DF-RHF iter  13: -1908.87904026688011   -5.21823e-10   5.66145e-08 DIIS
   @DF-RHF iter  14: -1908.87904026698288   -1.02773e-10   2.25016e-08 DIIS
   @DF-RHF iter  15: -1908.87904026699675   -1.38698e-11   1.14753e-08 DIIS
   @DF-RHF iter  16: -1908.87904026699857   -1.81899e-12   3.86163e-09 DIIS

  ==> Post-Iterations <==

    Orbital Energies [Eh]
    ---------------------

    Doubly Occupied:                                                      

       1A   -104.848911     2A   -104.847877     3A   -104.846860  
       4A    -20.632484     5A    -20.614515     6A    -20.570795  
       7A    -11.401520     8A    -11.337831     9A    -11.337206  
      10A    -11.333852    11A    -11.328901    12A    -11.323074  
      13A    -11.284138    14A    -11.275929    15A    -10.581956  
      16A    -10.581147    17A    -10.580081    18A     -8.051407  
      19A     -8.050591    20A     -8.049527    21A     -8.047947  
      22A     -8.047877    23A     -8.047058    24A     -8.047035  
      25A     -8.045989    26A     -8.045984    27A     -1.496435  
      28A     -1.449838    29A     -1.387288    30A     -1.244706  
      31A     -1.187228    32A     -1.154787    33A     -1.114783  
      34A     -1.057234    35A     -1.023365    36A     -0.983388  
      37A     -0.884808    38A     -0.857269    39A     -0.820153  
      40A     -0.750214    41A     -0.739913    42A     -0.720154  
      43A     -0.706004    44A     -0.687334    45A     -0.674965  
      46A     -0.651478    47A     -0.631574    48A     -0.621627  
      49A     -0.609462    50A     -0.594562    51A     -0.577419  
      52A     -0.563238    53A     -0.557048    54A     -0.529249  
      55A     -0.501247    56A     -0.497594    57A     -0.487642  
      58A     -0.481646    59A     -0.472291    60A     -0.464657  
      61A     -0.460453    62A     -0.457614    63A     -0.367216  
      64A     -0.346837  

    Virtual:                                                              

      65A      0.095682    66A      0.105022    67A      0.148567  
      68A      0.179635    69A      0.203782    70A      0.217513  
      71A      0.233244    72A      0.237580    73A      0.282234  
      74A      0.297511    75A      0.307761    76A      0.319046  
      77A      0.326141    78A      0.381125    79A      0.417586  
      80A      0.431063    81A      0.439211    82A      0.465508  
      83A      0.477453    84A      0.480961    85A      0.508039  
      86A      0.529270    87A      0.543500    88A      0.571719  
      89A      0.584479    90A      0.597431    91A      0.600561  
      92A      0.619346    93A      0.624294    94A      0.637568  
      95A      0.652502    96A      0.660116    97A      0.672918  
      98A      0.684391    99A      0.702310   100A      0.719433  
     101A      0.737084   102A      0.759853   103A      0.770713  
     104A      0.783470   105A      0.798580   106A      0.807736  
     107A      0.813675   108A      0.847855   109A      0.855756  
     110A      0.876678   111A      0.890052   112A      0.914931  
     113A      0.942828   114A      0.948824   115A      0.962419  
     116A      0.967380   117A      0.985051   118A      1.007963  
     119A      1.019468   120A      1.041913   121A      1.053508  
     122A      1.069555   123A      1.079958   124A      1.092473  
     125A      1.107598   126A      1.112788   127A      1.117246  
     128A      1.126719   129A      1.130880   130A      1.131806  
     131A      1.140404   132A      1.148833   133A      1.169292  
     134A      1.185548   135A      1.194631   136A      1.201270  
     137A      1.217854   138A      1.226110   139A      1.247723  
     140A      1.258187   141A      1.282408   142A      1.289295  
     143A      1.299225   144A      1.326173   145A      1.331763  
     146A      1.347479   147A      1.366148   148A      1.414771  
     149A      1.420965   150A      1.428369   151A      1.439053  
     152A      1.478828   153A      1.516625   154A      1.552466  
     155A      1.563363   156A      1.594655   157A      1.616400  
     158A      1.645983   159A      1.659171   160A      1.673969  
     161A      1.677287   162A      1.696083   163A      1.750455  
     164A      1.783143   165A      1.785543   166A      1.795223  
     167A      1.823442   168A      1.877723   169A      1.901346  
     170A      1.968243   171A      1.996891   172A      2.029061  
     173A      2.052489   174A      2.057653   175A      2.063577  
     176A      2.087116   177A      2.115521   178A      2.154793  
     179A      2.190139   180A      2.208583   181A      2.222852  
     182A      2.229291   183A      2.264430   184A      2.326496  
     185A      2.338455   186A      2.363159   187A      2.385624  
     188A      2.402070   189A      2.413257   190A      2.425936  
     191A      2.462332   192A      2.471882   193A      2.531092  
     194A      2.538073   195A      2.583319   196A      2.598049  
     197A      2.641764   198A      2.711594   199A      2.775800  
     200A      2.802104   201A      2.815123   202A      2.840869  
     203A      2.885917   204A      2.968081   205A      3.001345  
     206A      3.023057   207A      3.057610   208A      3.069318  
     209A      3.096385   210A      3.107115   211A      3.186220  
     212A      3.193929   213A      3.240168   214A      3.344183  
     215A      3.471282   216A      3.487355   217A      3.532562  
     218A      3.711390   219A      4.249888   220A      4.425412  
     221A      4.447272   222A      4.476455   223A      4.522443  
     224A      4.608616   225A      4.655619   226A      4.684490  
     227A      4.723634   228A      4.746429   229A      4.799403  
     230A      4.876925   231A      4.899566   232A      5.152094  

    Final Occupation by Irrep:
              A 
    DOCC [    64 ]

  Energy converged.

  @DF-RHF Final Energy: -1908.87904026699857

   => Energetics <=

    Nuclear Repulsion Energy =           1165.8325910190196737
    One-Electron Energy =               -4949.4768400608481898
    Two-Electron Energy =                1874.7652087748299436
    Total Energy =                      -1908.8790402669985724



Properties will be evaluated at   0.000000,   0.000000,   0.000000 [a0]

Properties computed using the SCF density matrix

  Nuclear Dipole Moment: [e a0]
     X:   -11.6927      Y:     6.0041      Z:     4.6950

  Electronic Dipole Moment: [e a0]
     X:    10.6909      Y:    -5.7285      Z:    -5.3196

  Dipole Moment: [e a0]
     X:    -1.0018      Y:     0.2756      Z:    -0.6245     Total:     1.2123

  Dipole Moment: [D]
     X:    -2.5463      Y:     0.7005      Z:    -1.5874     Total:     3.0813


*** tstop() called on wr53 at Wed Sep 26 15:53:00 2018
Module time:
	user time   =      86.18 seconds =       1.44 minutes
	system time =       6.51 seconds =       0.11 minutes
	total time  =         13 seconds =       0.22 minutes
Total time:
	user time   =     246.01 seconds =       4.10 minutes
	system time =      15.13 seconds =       0.25 minutes
	total time  =         36 seconds =       0.60 minutes

*** tstart() called on wr53
*** at Wed Sep 26 15:53:00 2018


         ------------------------------------------------------------
                                   SCF GRAD                          
                          Rob Parrish, Justin Turney,                
                       Andy Simmonett, and Alex Sokolov              
         ------------------------------------------------------------

  ==> Geometry <==

    Molecular point group: c1
    Full point group: C1

    Geometry (in Angstrom), charge = 0, multiplicity = 1:

       Center              X                  Y                   Z               Mass       
    ------------   -----------------  -----------------  -----------------  -----------------
         C           -0.220656304676    -1.221600903923     0.237680491201    12.000000000000
         O           -1.065173552167     0.696193634872     1.393131270015    15.994914619560
         C           -0.200922443332     0.138674904550     0.514594190536    12.000000000000
         C            0.756481524423     0.933646068670    -0.087488580830    12.000000000000
         H            0.782609823430     1.980299631475     0.146008334653     1.007825032070
         O           -2.707181276736     2.024159929129     3.066164993585    15.994914619560
         C            1.682965446730     0.393491215038    -0.961779302004    12.000000000000
         C            1.654848155539    -0.965011268615    -1.238754067804    12.000000000000
         C            0.702792151583    -1.766701899518    -0.632561972770    12.000000000000
         H            0.685269616535    -2.818185871265    -0.839887351480     1.007825032070
         C           -2.285979537076     1.130993298257     0.868227249794    12.000000000000
         H           -2.873295940139     0.304600777202     0.486773497624     1.007825032070
         H           -2.137234543971     1.839820238246     0.059780545683     1.007825032070
         C           -3.069181321040     1.817537896894     1.961955034781    12.000000000000
         O           -4.259420775205     2.181073749253     1.491484367079    15.994914619560
         H           -4.739985277247     2.618687698393     2.187854000409     1.007825032070
         CL           2.784130388650    -1.705359967097    -2.322715263522    34.968852682000
         CL          -1.388323393766    -2.256512659888     0.992809620679    34.968852682000
         CL           2.852855165486     1.448601705839    -1.677948283929    34.968852682000

  Nuclear repulsion = 1165.832591019019674

  ==> Basis Set <==

  Basis Set: 6-31G(D)
    Blend: 6-31G(D)
    Number of shells: 100
    Number of basis function: 232
    Number of Cartesian functions: 232
    Spherical Harmonics?: false
    Max angular momentum: 2

  ==> DFJKGrad: Density-Fitted SCF Gradients <==

    Gradient:                    1
    J tasked:                  Yes
    K tasked:                  Yes
    wK tasked:                  No
    OpenMP threads:             16
    Integrals threads:          16
    Memory (MB):             78678
    Schwarz Cutoff:          0E+00
    Fitting Condition:       1E-12

   => Auxiliary Basis Set <=

  Basis Set: (6-31G(D) AUX)
    Blend: CC-PVDZ-JKFIT
    Number of shells: 417
    Number of basis function: 1406
    Number of Cartesian functions: 1406
    Spherical Harmonics?: false
    Max angular momentum: 3


  -Total Gradient:
     Atom            X                  Y                   Z
    ------   -----------------  -----------------  -----------------
       1       -0.000691051217    -0.000032294578     0.000385491393
       2        0.000013807303    -0.000055755840    -0.000022941570
       3        0.000173406827     0.000091598624    -0.000027789632
       4       -0.000055944606     0.000027328797     0.000041741114
       5        0.000000315555     0.000004586085    -0.000007273385
       6        0.000000735320    -0.000000322916    -0.000001435870
       7        0.000029780455    -0.000059137402    -0.000030801075
       8        0.000064956662     0.000065820146    -0.000044971990
       9        0.000316347055    -0.000145236735    -0.000200449234
      10       -0.000008471554     0.000003793443     0.000001164131
      11       -0.000010946765    -0.000001949599    -0.000007795266
      12        0.000001344188    -0.000000103929     0.000001826193
      13        0.000000993801    -0.000000273626     0.000000997709
      14        0.000000034769     0.000000096608     0.000003276370
      15        0.000002014065    -0.000000445188    -0.000001087728
      16       -0.000000000975    -0.000000290407     0.000000071587
      17       -0.000004962593     0.000002645160    -0.000003336917
      18        0.000168893283     0.000099593415    -0.000086872099
      19       -0.000001251822     0.000000347949     0.000000186262


*** tstop() called on wr53 at Wed Sep 26 15:53:09 2018
Module time:
	user time   =      63.53 seconds =       1.06 minutes
	system time =       1.85 seconds =       0.03 minutes
	total time  =          9 seconds =       0.15 minutes
Total time:
	user time   =     309.57 seconds =       5.16 minutes
	system time =      16.98 seconds =       0.28 minutes
	total time  =         45 seconds =       0.75 minutes

  //>>>>>>>>>>>>>>>>>>>>>>>>>>>>>>>>>>>//
  //   Loading displacement 2 of 103   //
  //<<<<<<<<<<<<<<<<<<<<<<<<<<<<<<<<<<<//
gradient() will perform analytic gradient computation.

*** tstart() called on wr53
*** at Wed Sep 26 15:53:09 2018

   => Loading Basis Set <=

    Name: 6-31G(D)
    Role: ORBITAL
    Keyword: BASIS
    atoms 1, 3-4, 7-9, 11, 14 entry C          line   111 file /usr/local/hpc1/software_molmod/psi4/psi4conda/share/psi4/basis/6-31g_d_.gbs 
    atoms 2, 6, 15            entry O          line   145 file /usr/local/hpc1/software_molmod/psi4/psi4conda/share/psi4/basis/6-31g_d_.gbs 
    atoms 5, 10, 12-13, 16    entry H          line    44 file /usr/local/hpc1/software_molmod/psi4/psi4conda/share/psi4/basis/6-31g_d_.gbs 
    atoms 17-19               entry CL         line   340 file /usr/local/hpc1/software_molmod/psi4/psi4conda/share/psi4/basis/6-31g_d_.gbs 


         ---------------------------------------------------------
                                   SCF
            by Justin Turney, Rob Parrish, Andy Simmonett
                             and Daniel Smith
                              RHF Reference
                       16 Threads, 104904 MiB Core
         ---------------------------------------------------------

  ==> Geometry <==

    Molecular point group: c1
    Full point group: C1

    Geometry (in Angstrom), charge = 0, multiplicity = 1:

       Center              X                  Y                   Z               Mass       
    ------------   -----------------  -----------------  -----------------  -----------------
         C           -0.219176930900    -1.221600117659     0.237662799746    12.000000000000
         O           -1.065244305975     0.696194213110     1.393133878679    15.994914619560
         C           -0.200997720368     0.138671652000     0.514594780562    12.000000000000
         C            0.756424340623     0.933633616516    -0.087471366080    12.000000000000
         H            0.782570019104     1.980283590953     0.146039688455     1.007825032070
         O           -2.707238622675     2.024167733631     3.066175025558    15.994914619560
         C            1.682904025676     0.393473754869    -0.961763483382    12.000000000000
         C            1.654764013019    -0.965024524007    -1.238756564564    12.000000000000
         C            0.702689769045    -1.766706106465    -0.632581150401    12.000000000000
         H            0.685149603249    -2.818186994235    -0.839920678640     1.007825032070
         C           -2.286039166756     1.131022865994     0.868228000418    12.000000000000
         H           -2.873368054493     0.304646013182     0.486759527312     1.007825032070
         H           -2.137276335825     1.839857921990     0.059791694492     1.007825032070
         C           -3.069235455268     1.817566962832     1.961960035577    12.000000000000
         O           -4.259465410156     2.181130527551     1.491486750185    15.994914619560
         H           -4.740026404363     2.618743831387     2.187859209778     1.007825032070
         CL           2.784039720546    -1.705379082391    -2.322720556336    34.968852682000
         CL          -1.388444798764    -2.256500917370     0.992770775889    34.968852682000
         CL           2.852817237718     1.448572743395    -1.677911033279    34.968852682000

  Running in c1 symmetry.

  Rotational constants: A =      0.02718  B =      0.00812  C =      0.00654 [cm^-1]
  Rotational constants: A =    814.72685  B =    243.28339  C =    195.92022 [MHz]
  Nuclear repulsion = 1165.832835880078164

  Charge       = 0
  Multiplicity = 1
  Electrons    = 128
  Nalpha       = 64
  Nbeta        = 64

  ==> Algorithm <==

  SCF Algorithm Type is DF.
  DIIS enabled.
  MOM disabled.
  Fractional occupation disabled.
  Guess Type is SAD.
  Energy threshold   = 1.00e-08
  Density threshold  = 1.00e-08
  Integral threshold = 0.00e+00

  ==> Primary Basis <==

  Basis Set: 6-31G(D)
    Blend: 6-31G(D)
    Number of shells: 100
    Number of basis function: 232
    Number of Cartesian functions: 232
    Spherical Harmonics?: false
    Max angular momentum: 2

   => Loading Basis Set <=

    Name: (6-31G(D) AUX)
    Role: JKFIT
    Keyword: DF_BASIS_SCF
    atoms 1, 3-4, 7-9, 11, 14 entry C          line   121 file /usr/local/hpc1/software_molmod/psi4/psi4conda/share/psi4/basis/cc-pvdz-jkfit.gbs 
    atoms 2, 6, 15            entry O          line   221 file /usr/local/hpc1/software_molmod/psi4/psi4conda/share/psi4/basis/cc-pvdz-jkfit.gbs 
    atoms 5, 10, 12-13, 16    entry H          line    51 file /usr/local/hpc1/software_molmod/psi4/psi4conda/share/psi4/basis/cc-pvdz-jkfit.gbs 
    atoms 17-19               entry CL         line   667 file /usr/local/hpc1/software_molmod/psi4/psi4conda/share/psi4/basis/cc-pvdz-jkfit.gbs 

  ==> Pre-Iterations <==

   -------------------------------------------------------
    Irrep   Nso     Nmo     Nalpha   Nbeta   Ndocc  Nsocc
   -------------------------------------------------------
     A        232     232       0       0       0       0
   -------------------------------------------------------
    Total     232     232      64      64      64       0
   -------------------------------------------------------

  ==> Integral Setup <==

  ==> DiskDFJK: Density-Fitted J/K Matrices <==

    J tasked:                  Yes
    K tasked:                  Yes
    wK tasked:                  No
    OpenMP threads:             16
    Integrals threads:          16
    Memory (MB):             78678
    Algorithm:                Core
    Integral Cache:           NONE
    Schwarz Cutoff:          1E-12
    Fitting Condition:       1E-12

   => Auxiliary Basis Set <=

  Basis Set: (6-31G(D) AUX)
    Blend: CC-PVDZ-JKFIT
    Number of shells: 417
    Number of basis function: 1406
    Number of Cartesian functions: 1406
    Spherical Harmonics?: false
    Max angular momentum: 3

  Minimum eigenvalue in the overlap matrix is 3.6781279286E-04.
  Using Symmetric Orthogonalization.

  SCF Guess: Superposition of Atomic Densities via on-the-fly atomic UHF.

  ==> Iterations <==

                           Total Energy        Delta E     RMS |[F,P]|

   @DF-RHF iter   0: -1915.83287175560872   -1.91583e+03   4.67385e-02 
   @DF-RHF iter   1: -1908.36720689655476    7.46566e+00   6.44980e-03 
   @DF-RHF iter   2: -1908.72990027187188   -3.62693e-01   5.27026e-03 DIIS
   @DF-RHF iter   3: -1908.86021243565915   -1.30312e-01   1.15319e-03 DIIS
   @DF-RHF iter   4: -1908.87641482220283   -1.62024e-02   3.17605e-04 DIIS
   @DF-RHF iter   5: -1908.87869058652973   -2.27576e-03   1.17259e-04 DIIS
   @DF-RHF iter   6: -1908.87900403017466   -3.13444e-04   3.97339e-05 DIIS
   @DF-RHF iter   7: -1908.87903782083708   -3.37907e-05   1.43675e-05 DIIS
   @DF-RHF iter   8: -1908.87903986739070   -2.04655e-06   5.88102e-06 DIIS
   @DF-RHF iter   9: -1908.87904019309735   -3.25707e-07   1.77848e-06 DIIS
   @DF-RHF iter  10: -1908.87904025294142   -5.98441e-08   5.77522e-07 DIIS
   @DF-RHF iter  11: -1908.87904026225374   -9.31232e-09   3.25767e-07 DIIS
   @DF-RHF iter  12: -1908.87904026369620   -1.44246e-09   9.26392e-08 DIIS
   @DF-RHF iter  13: -1908.87904026400315   -3.06954e-10   5.11754e-08 DIIS
   @DF-RHF iter  14: -1908.87904026406795   -6.48015e-11   2.15001e-08 DIIS
   @DF-RHF iter  15: -1908.87904026407773   -9.77707e-12   7.35761e-09 DIIS

  ==> Post-Iterations <==

    Orbital Energies [Eh]
    ---------------------

    Doubly Occupied:                                                      

       1A   -104.848796     2A   -104.847894     3A   -104.846882  
       4A    -20.632491     5A    -20.614578     6A    -20.570804  
       7A    -11.401530     8A    -11.337873     9A    -11.337221  
      10A    -11.333884    11A    -11.328897    12A    -11.323090  
      13A    -11.284078    14A    -11.275951    15A    -10.581828  
      16A    -10.581163    17A    -10.580103    18A     -8.051276  
      19A     -8.050607    20A     -8.049550    21A     -8.047819  
      22A     -8.047750    23A     -8.047074    24A     -8.047051  
      25A     -8.046012    26A     -8.046007    27A     -1.496444  
      28A     -1.449868    29A     -1.387296    30A     -1.244783  
      31A     -1.187084    32A     -1.154812    33A     -1.114727  
      34A     -1.057323    35A     -1.023447    36A     -0.983419  
      37A     -0.884849    38A     -0.857289    39A     -0.820217  
      40A     -0.750254    41A     -0.739988    42A     -0.720167  
      43A     -0.706028    44A     -0.687359    45A     -0.674934  
      46A     -0.651589    47A     -0.631610    48A     -0.621653  
      49A     -0.609345    50A     -0.594609    51A     -0.577440  
      52A     -0.563243    53A     -0.556948    54A     -0.529150  
      55A     -0.501260    56A     -0.497602    57A     -0.487652  
      58A     -0.481614    59A     -0.472295    60A     -0.464666  
      61A     -0.460471    62A     -0.457637    63A     -0.367332  
      64A     -0.346887  

    Virtual:                                                              

      65A      0.095790    66A      0.104937    67A      0.148455  
      68A      0.179628    69A      0.203591    70A      0.217506  
      71A      0.233239    72A      0.237583    73A      0.282214  
      74A      0.297518    75A      0.307795    76A      0.319017  
      77A      0.326173    78A      0.381146    79A      0.417553  
      80A      0.431129    81A      0.439431    82A      0.465535  
      83A      0.477444    84A      0.480984    85A      0.508020  
      86A      0.529359    87A      0.543510    88A      0.571752  
      89A      0.584526    90A      0.597418    91A      0.600560  
      92A      0.619376    93A      0.624212    94A      0.637654  
      95A      0.652500    96A      0.660105    97A      0.672978  
      98A      0.684411    99A      0.702156   100A      0.719383  
     101A      0.737075   102A      0.759837   103A      0.770696  
     104A      0.783480   105A      0.798584   106A      0.807751  
     107A      0.813671   108A      0.847899   109A      0.855750  
     110A      0.876625   111A      0.890047   112A      0.914960  
     113A      0.942844   114A      0.948797   115A      0.962451  
     116A      0.967346   117A      0.984987   118A      1.008005  
     119A      1.019560   120A      1.041858   121A      1.053577  
     122A      1.069551   123A      1.079921   124A      1.092472  
     125A      1.107565   126A      1.112845   127A      1.117223  
     128A      1.126727   129A      1.130835   130A      1.131865  
     131A      1.140390   132A      1.148908   133A      1.169387  
     134A      1.185569   135A      1.194651   136A      1.201255  
     137A      1.217805   138A      1.226132   139A      1.247876  
     140A      1.258152   141A      1.282243   142A      1.289340  
     143A      1.299167   144A      1.326161   145A      1.331696  
     146A      1.347400   147A      1.366123   148A      1.414837  
     149A      1.420912   150A      1.428283   151A      1.439027  
     152A      1.478884   153A      1.516786   154A      1.552408  
     155A      1.563366   156A      1.594522   157A      1.616351  
     158A      1.646195   159A      1.659171   160A      1.674226  
     161A      1.677103   162A      1.695972   163A      1.750448  
     164A      1.783084   165A      1.785632   166A      1.795128  
     167A      1.823341   168A      1.877881   169A      1.901334  
     170A      1.968234   171A      1.996924   172A      2.029188  
     173A      2.052642   174A      2.057690   175A      2.063922  
     176A      2.086887   177A      2.115534   178A      2.154758  
     179A      2.189817   180A      2.208549   181A      2.222786  
     182A      2.229282   183A      2.264532   184A      2.326468  
     185A      2.338398   186A      2.363156   187A      2.385853  
     188A      2.402296   189A      2.413356   190A      2.426037  
     191A      2.462449   192A      2.471944   193A      2.531187  
     194A      2.538057   195A      2.583873   196A      2.597978  
     197A      2.641861   198A      2.711509   199A      2.775746  
     200A      2.802060   201A      2.815139   202A      2.840761  
     203A      2.886162   204A      2.968371   205A      3.001361  
     206A      3.023058   207A      3.057969   208A      3.069805  
     209A      3.096905   210A      3.107116   211A      3.186251  
     212A      3.193787   213A      3.240133   214A      3.344186  
     215A      3.471227   216A      3.487510   217A      3.532566  
     218A      3.711771   219A      4.249914   220A      4.425391  
     221A      4.447377   222A      4.476669   223A      4.522442  
     224A      4.608740   225A      4.655737   226A      4.684575  
     227A      4.723650   228A      4.746464   229A      4.799229  
     230A      4.876969   231A      4.899548   232A      5.152338  

    Final Occupation by Irrep:
              A 
    DOCC [    64 ]

  Energy converged.

  @DF-RHF Final Energy: -1908.87904026407773

   => Energetics <=

    Nuclear Repulsion Energy =           1165.8328358800781643
    One-Electron Energy =               -4949.4767637693703364
    Two-Electron Energy =                1874.7648876252144419
    Total Energy =                      -1908.8790402640777302



Properties will be evaluated at   0.000000,   0.000000,   0.000000 [a0]

Properties computed using the SCF density matrix

  Nuclear Dipole Moment: [e a0]
     X:   -11.6927      Y:     6.0042      Z:     4.6950

  Electronic Dipole Moment: [e a0]
     X:    10.6921      Y:    -5.7273      Z:    -5.3206

  Dipole Moment: [e a0]
     X:    -1.0006      Y:     0.2769      Z:    -0.6256     Total:     1.2121

  Dipole Moment: [D]
     X:    -2.5433      Y:     0.7039      Z:    -1.5900     Total:     3.0809


*** tstop() called on wr53 at Wed Sep 26 15:53:22 2018
Module time:
	user time   =      89.64 seconds =       1.49 minutes
	system time =       7.04 seconds =       0.12 minutes
	total time  =         13 seconds =       0.22 minutes
Total time:
	user time   =     399.29 seconds =       6.65 minutes
	system time =      24.02 seconds =       0.40 minutes
	total time  =         58 seconds =       0.97 minutes

*** tstart() called on wr53
*** at Wed Sep 26 15:53:22 2018


         ------------------------------------------------------------
                                   SCF GRAD                          
                          Rob Parrish, Justin Turney,                
                       Andy Simmonett, and Alex Sokolov              
         ------------------------------------------------------------

  ==> Geometry <==

    Molecular point group: c1
    Full point group: C1

    Geometry (in Angstrom), charge = 0, multiplicity = 1:

       Center              X                  Y                   Z               Mass       
    ------------   -----------------  -----------------  -----------------  -----------------
         C           -0.219176930900    -1.221600117659     0.237662799746    12.000000000000
         O           -1.065244305975     0.696194213110     1.393133878679    15.994914619560
         C           -0.200997720368     0.138671652000     0.514594780562    12.000000000000
         C            0.756424340623     0.933633616516    -0.087471366080    12.000000000000
         H            0.782570019104     1.980283590953     0.146039688455     1.007825032070
         O           -2.707238622675     2.024167733631     3.066175025558    15.994914619560
         C            1.682904025676     0.393473754869    -0.961763483382    12.000000000000
         C            1.654764013019    -0.965024524007    -1.238756564564    12.000000000000
         C            0.702689769045    -1.766706106465    -0.632581150401    12.000000000000
         H            0.685149603249    -2.818186994235    -0.839920678640     1.007825032070
         C           -2.286039166756     1.131022865994     0.868228000418    12.000000000000
         H           -2.873368054493     0.304646013182     0.486759527312     1.007825032070
         H           -2.137276335825     1.839857921990     0.059791694492     1.007825032070
         C           -3.069235455268     1.817566962832     1.961960035577    12.000000000000
         O           -4.259465410156     2.181130527551     1.491486750185    15.994914619560
         H           -4.740026404363     2.618743831387     2.187859209778     1.007825032070
         CL           2.784039720546    -1.705379082391    -2.322720556336    34.968852682000
         CL          -1.388444798764    -2.256500917370     0.992770775889    34.968852682000
         CL           2.852817237718     1.448572743395    -1.677911033279    34.968852682000

  Nuclear repulsion = 1165.832835880077937

  ==> Basis Set <==

  Basis Set: 6-31G(D)
    Blend: 6-31G(D)
    Number of shells: 100
    Number of basis function: 232
    Number of Cartesian functions: 232
    Spherical Harmonics?: false
    Max angular momentum: 2

  ==> DFJKGrad: Density-Fitted SCF Gradients <==

    Gradient:                    1
    J tasked:                  Yes
    K tasked:                  Yes
    wK tasked:                  No
    OpenMP threads:             16
    Integrals threads:          16
    Memory (MB):             78678
    Schwarz Cutoff:          0E+00
    Fitting Condition:       1E-12

   => Auxiliary Basis Set <=

  Basis Set: (6-31G(D) AUX)
    Blend: CC-PVDZ-JKFIT
    Number of shells: 417
    Number of basis function: 1406
    Number of Cartesian functions: 1406
    Spherical Harmonics?: false
    Max angular momentum: 3


  -Total Gradient:
     Atom            X                  Y                   Z
    ------   -----------------  -----------------  -----------------
       1        0.000692491764     0.000030600805    -0.000386313488
       2       -0.000012114455     0.000053869236     0.000024363313
       3       -0.000177550164    -0.000088186853     0.000025250753
       4        0.000054959882    -0.000027367634    -0.000043319997
       5       -0.000000653665    -0.000004620741     0.000006913635
       6       -0.000001359172     0.000000098062    -0.000000035218
       7       -0.000025180039     0.000057766644     0.000036462149
       8       -0.000063495476    -0.000065765863     0.000046570815
       9       -0.000318875379     0.000145591186     0.000201309210
      10        0.000008539497    -0.000003473192    -0.000001440974
      11        0.000011696799     0.000004808055     0.000004720455
      12       -0.000001136101    -0.000000677023    -0.000000982119
      13       -0.000001317570    -0.000000583914    -0.000000603787
      14        0.000000715218    -0.000000608686     0.000000000365
      15       -0.000001707302     0.000000858926     0.000000560719
      16        0.000000138536    -0.000000136163    -0.000000317055
      17        0.000003851699    -0.000002553754     0.000002086862
      18       -0.000168369468    -0.000099613302     0.000086535351
      19       -0.000000634656    -0.000000005781    -0.000001760903


*** tstop() called on wr53 at Wed Sep 26 15:53:31 2018
Module time:
	user time   =      65.81 seconds =       1.10 minutes
	system time =       1.99 seconds =       0.03 minutes
	total time  =          9 seconds =       0.15 minutes
Total time:
	user time   =     465.11 seconds =       7.75 minutes
	system time =      26.01 seconds =       0.43 minutes
	total time  =         67 seconds =       1.12 minutes

  //>>>>>>>>>>>>>>>>>>>>>>>>>>>>>>>>>>>//
  //   Loading displacement 3 of 103   //
  //<<<<<<<<<<<<<<<<<<<<<<<<<<<<<<<<<<<//
gradient() will perform analytic gradient computation.

*** tstart() called on wr53
*** at Wed Sep 26 15:53:31 2018

   => Loading Basis Set <=

    Name: 6-31G(D)
    Role: ORBITAL
    Keyword: BASIS
    atoms 1, 3-4, 7-9, 11, 14 entry C          line   111 file /usr/local/hpc1/software_molmod/psi4/psi4conda/share/psi4/basis/6-31g_d_.gbs 
    atoms 2, 6, 15            entry O          line   145 file /usr/local/hpc1/software_molmod/psi4/psi4conda/share/psi4/basis/6-31g_d_.gbs 
    atoms 5, 10, 12-13, 16    entry H          line    44 file /usr/local/hpc1/software_molmod/psi4/psi4conda/share/psi4/basis/6-31g_d_.gbs 
    atoms 17-19               entry CL         line   340 file /usr/local/hpc1/software_molmod/psi4/psi4conda/share/psi4/basis/6-31g_d_.gbs 


         ---------------------------------------------------------
                                   SCF
            by Justin Turney, Rob Parrish, Andy Simmonett
                             and Daniel Smith
                              RHF Reference
                       16 Threads, 104904 MiB Core
         ---------------------------------------------------------

  ==> Geometry <==

    Molecular point group: c1
    Full point group: C1

    Geometry (in Angstrom), charge = 0, multiplicity = 1:

       Center              X                  Y                   Z               Mass       
    ------------   -----------------  -----------------  -----------------  -----------------
         C           -0.219916617788    -1.222345825809     0.237673546597    12.000000000000
         O           -1.065208444488     0.696233420031     1.393131707690    15.994914619560
         C           -0.200959957895     0.138711124852     0.514594310879    12.000000000000
         C            0.756453232938     0.933676427365    -0.087481533583    12.000000000000
         H            0.782590640879     1.980328542317     0.146020852120     1.007825032070
         O           -2.707208682540     2.024206467184     3.066167418797    15.994914619560
         C            1.682934683012     0.393517404337    -0.961772298619    12.000000000000
         C            1.654805491742    -0.964983388783    -1.238754147347    12.000000000000
         C            0.702740189648    -1.766668229322    -0.632568998028    12.000000000000
         H            0.685208423056    -2.818150968637    -0.839899846403     1.007825032070
         C           -2.286008806435     1.131047217836     0.868226318330    12.000000000000
         H           -2.873331818705     0.304662161126     0.486766571621     1.007825032070
         H           -2.137254786537     1.839876930654     0.059783706337     1.007825032070
         C           -3.069207396425     1.817593513706     1.961955325092    12.000000000000
         O           -4.259442055788     2.181142933843     1.491483011430    15.994914619560
         H           -4.740004519611     2.618757794183     2.187853478709     1.007825032070
         CL           2.784083998227    -1.705337075018    -2.322715818829    34.968852682000
         CL          -1.388384747223    -2.256467786194     0.992793888842    34.968852682000
         CL           2.852836397716     1.448620631919    -1.677932384996    34.968852682000

  Running in c1 symmetry.

  Rotational constants: A =      0.02718  B =      0.00812  C =      0.00654 [cm^-1]
  Rotational constants: A =    814.69106  B =    243.28356  C =    195.91806 [MHz]
  Nuclear repulsion = 1165.826499390743265

  Charge       = 0
  Multiplicity = 1
  Electrons    = 128
  Nalpha       = 64
  Nbeta        = 64

  ==> Algorithm <==

  SCF Algorithm Type is DF.
  DIIS enabled.
  MOM disabled.
  Fractional occupation disabled.
  Guess Type is SAD.
  Energy threshold   = 1.00e-08
  Density threshold  = 1.00e-08
  Integral threshold = 0.00e+00

  ==> Primary Basis <==

  Basis Set: 6-31G(D)
    Blend: 6-31G(D)
    Number of shells: 100
    Number of basis function: 232
    Number of Cartesian functions: 232
    Spherical Harmonics?: false
    Max angular momentum: 2

   => Loading Basis Set <=

    Name: (6-31G(D) AUX)
    Role: JKFIT
    Keyword: DF_BASIS_SCF
    atoms 1, 3-4, 7-9, 11, 14 entry C          line   121 file /usr/local/hpc1/software_molmod/psi4/psi4conda/share/psi4/basis/cc-pvdz-jkfit.gbs 
    atoms 2, 6, 15            entry O          line   221 file /usr/local/hpc1/software_molmod/psi4/psi4conda/share/psi4/basis/cc-pvdz-jkfit.gbs 
    atoms 5, 10, 12-13, 16    entry H          line    51 file /usr/local/hpc1/software_molmod/psi4/psi4conda/share/psi4/basis/cc-pvdz-jkfit.gbs 
    atoms 17-19               entry CL         line   667 file /usr/local/hpc1/software_molmod/psi4/psi4conda/share/psi4/basis/cc-pvdz-jkfit.gbs 

  ==> Pre-Iterations <==

   -------------------------------------------------------
    Irrep   Nso     Nmo     Nalpha   Nbeta   Ndocc  Nsocc
   -------------------------------------------------------
     A        232     232       0       0       0       0
   -------------------------------------------------------
    Total     232     232      64      64      64       0
   -------------------------------------------------------

  ==> Integral Setup <==

  ==> DiskDFJK: Density-Fitted J/K Matrices <==

    J tasked:                  Yes
    K tasked:                  Yes
    wK tasked:                  No
    OpenMP threads:             16
    Integrals threads:          16
    Memory (MB):             78678
    Algorithm:                Core
    Integral Cache:           NONE
    Schwarz Cutoff:          1E-12
    Fitting Condition:       1E-12

   => Auxiliary Basis Set <=

  Basis Set: (6-31G(D) AUX)
    Blend: CC-PVDZ-JKFIT
    Number of shells: 417
    Number of basis function: 1406
    Number of Cartesian functions: 1406
    Spherical Harmonics?: false
    Max angular momentum: 3

  Minimum eigenvalue in the overlap matrix is 3.6835056354E-04.
  Using Symmetric Orthogonalization.

  SCF Guess: Superposition of Atomic Densities via on-the-fly atomic UHF.

  ==> Iterations <==

                           Total Energy        Delta E     RMS |[F,P]|

   @DF-RHF iter   0: -1914.51455032869035   -1.91451e+03   4.65079e-02 
   @DF-RHF iter   1: -1908.47548886898994    6.03906e+00   7.51331e-03 
   @DF-RHF iter   2: -1908.77993712420425   -3.04448e-01   3.09368e-03 DIIS
   @DF-RHF iter   3: -1908.86200664285570   -8.20695e-02   9.47137e-04 DIIS
   @DF-RHF iter   4: -1908.87707467182281   -1.50680e-02   3.85667e-04 DIIS
   @DF-RHF iter   5: -1908.87868221904773   -1.60755e-03   1.03850e-04 DIIS
   @DF-RHF iter   6: -1908.87897746208228   -2.95243e-04   5.75651e-05 DIIS
   @DF-RHF iter   7: -1908.87903101267875   -5.35506e-05   1.69046e-05 DIIS
   @DF-RHF iter   8: -1908.87903824770137   -7.23502e-06   7.42714e-06 DIIS
   @DF-RHF iter   9: -1908.87903966884642   -1.42115e-06   4.28820e-06 DIIS
   @DF-RHF iter  10: -1908.87903999394007   -3.25094e-07   1.27752e-06 DIIS
   @DF-RHF iter  11: -1908.87904004369375   -4.97537e-08   3.39429e-07 DIIS
   @DF-RHF iter  12: -1908.87904004780398   -4.11023e-09   1.47274e-07 DIIS
   @DF-RHF iter  13: -1908.87904004817824   -3.74257e-10   5.15330e-08 DIIS
   @DF-RHF iter  14: -1908.87904004824395   -6.57110e-11   1.34199e-08 DIIS
   @DF-RHF iter  15: -1908.87904004825009   -6.13909e-12   7.64732e-09 DIIS

  ==> Post-Iterations <==

    Orbital Energies [Eh]
    ---------------------

    Doubly Occupied:                                                      

       1A   -104.848900     2A   -104.847875     3A   -104.846860  
       4A    -20.632489     5A    -20.614553     6A    -20.570801  
       7A    -11.401526     8A    -11.337913     9A    -11.337199  
      10A    -11.333847    11A    -11.328911    12A    -11.323083  
      13A    -11.284052    14A    -11.275915    15A    -10.581946  
      16A    -10.581144    17A    -10.580080    18A     -8.051396  
      19A     -8.050588    20A     -8.049527    21A     -8.047936  
      22A     -8.047867    23A     -8.047056    24A     -8.047032  
      25A     -8.045989    26A     -8.045984    27A     -1.496441  
      28A     -1.449844    29A     -1.387293    30A     -1.244721  
      31A     -1.187221    32A     -1.154783    33A     -1.114762  
      34A     -1.057279    35A     -1.023426    36A     -0.983316  
      37A     -0.884740    38A     -0.857267    39A     -0.820211  
      40A     -0.750218    41A     -0.739940    42A     -0.720159  
      43A     -0.706008    44A     -0.687338    45A     -0.674960  
      46A     -0.651484    47A     -0.631575    48A     -0.621638  
      49A     -0.609473    50A     -0.594576    51A     -0.577419  
      52A     -0.563211    53A     -0.557056    54A     -0.529253  
      55A     -0.501239    56A     -0.497599    57A     -0.487622  
      58A     -0.481652    59A     -0.472289    60A     -0.464660  
      61A     -0.460459    62A     -0.457610    63A     -0.367301  
      64A     -0.346764  

    Virtual:                                                              

      65A      0.095790    66A      0.104932    67A      0.148552  
      68A      0.179629    69A      0.203777    70A      0.217508  
      71A      0.233262    72A      0.237580    73A      0.282235  
      74A      0.297526    75A      0.307777    76A      0.319014  
      77A      0.326146    78A      0.381173    79A      0.417539  
      80A      0.431054    81A      0.439319    82A      0.465502  
      83A      0.477458    84A      0.480941    85A      0.508019  
      86A      0.529250    87A      0.543505    88A      0.571665  
      89A      0.584469    90A      0.597435    91A      0.600568  
      92A      0.619344    93A      0.624224    94A      0.637578  
      95A      0.652507    96A      0.660153    97A      0.672930  
      98A      0.684426    99A      0.702247   100A      0.719424  
     101A      0.737092   102A      0.759844   103A      0.770706  
     104A      0.783474   105A      0.798598   106A      0.807791  
     107A      0.813712   108A      0.847865   109A      0.855803  
     110A      0.876654   111A      0.889962   112A      0.914944  
     113A      0.942846   114A      0.948820   115A      0.962421  
     116A      0.967369   117A      0.985024   118A      1.007985  
     119A      1.019547   120A      1.041881   121A      1.053578  
     122A      1.069536   123A      1.079939   124A      1.092468  
     125A      1.107572   126A      1.112817   127A      1.117212  
     128A      1.126702   129A      1.130848   130A      1.131805  
     131A      1.140401   132A      1.148850   133A      1.169286  
     134A      1.185556   135A      1.194644   136A      1.201261  
     137A      1.217861   138A      1.226110   139A      1.247877  
     140A      1.258187   141A      1.282304   142A      1.289312  
     143A      1.299189   144A      1.326175   145A      1.331726  
     146A      1.347458   147A      1.366133   148A      1.414789  
     149A      1.421015   150A      1.428318   151A      1.439017  
     152A      1.478877   153A      1.516701   154A      1.552454  
     155A      1.563382   156A      1.594560   157A      1.616387  
     158A      1.646131   159A      1.659164   160A      1.674123  
     161A      1.677257   162A      1.696095   163A      1.750460  
     164A      1.783084   165A      1.785568   166A      1.795154  
     167A      1.823407   168A      1.877773   169A      1.901330  
     170A      1.968235   171A      1.996880   172A      2.029053  
     173A      2.052474   174A      2.057656   175A      2.063639  
     176A      2.086991   177A      2.115524   178A      2.154750  
     179A      2.190144   180A      2.208585   181A      2.222851  
     182A      2.229276   183A      2.264443   184A      2.326437  
     185A      2.338347   186A      2.363114   187A      2.385758  
     188A      2.402225   189A      2.413387   190A      2.425884  
     191A      2.462362   192A      2.471867   193A      2.531131  
     194A      2.537973   195A      2.583547   196A      2.598155  
     197A      2.641725   198A      2.711561   199A      2.775776  
     200A      2.802054   201A      2.815066   202A      2.840723  
     203A      2.886089   204A      2.968076   205A      3.001135  
     206A      3.023041   207A      3.057720   208A      3.069632  
     209A      3.096560   210A      3.107107   211A      3.186165  
     212A      3.193908   213A      3.240136   214A      3.344178  
     215A      3.471218   216A      3.487195   217A      3.532566  
     218A      3.711370   219A      4.249894   220A      4.425419  
     221A      4.447246   222A      4.476642   223A      4.522396  
     224A      4.608617   225A      4.655690   226A      4.684525  
     227A      4.723659   228A      4.746447   229A      4.799302  
     230A      4.876820   231A      4.899550   232A      5.152007  

    Final Occupation by Irrep:
              A 
    DOCC [    64 ]

  Energy converged.

  @DF-RHF Final Energy: -1908.87904004825009

   => Energetics <=

    Nuclear Repulsion Energy =           1165.8264993907432654
    One-Electron Energy =               -4949.4645305107742388
    Two-Electron Energy =                1874.7589910717808834
    Total Energy =                      -1908.8790400482500900



Properties will be evaluated at   0.000000,   0.000000,   0.000000 [a0]

Properties computed using the SCF density matrix

  Nuclear Dipole Moment: [e a0]
     X:   -11.6927      Y:     6.0042      Z:     4.6950

  Electronic Dipole Moment: [e a0]
     X:    10.6907      Y:    -5.7285      Z:    -5.3195

  Dipole Moment: [e a0]
     X:    -1.0020      Y:     0.2758      Z:    -0.6245     Total:     1.2125

  Dipole Moment: [D]
     X:    -2.5469      Y:     0.7009      Z:    -1.5873     Total:     3.0818


*** tstop() called on wr53 at Wed Sep 26 15:53:44 2018
Module time:
	user time   =      91.49 seconds =       1.52 minutes
	system time =       6.40 seconds =       0.11 minutes
	total time  =         13 seconds =       0.22 minutes
Total time:
	user time   =     556.68 seconds =       9.28 minutes
	system time =      32.41 seconds =       0.54 minutes
	total time  =         80 seconds =       1.33 minutes

*** tstart() called on wr53
*** at Wed Sep 26 15:53:44 2018


         ------------------------------------------------------------
                                   SCF GRAD                          
                          Rob Parrish, Justin Turney,                
                       Andy Simmonett, and Alex Sokolov              
         ------------------------------------------------------------

  ==> Geometry <==

    Molecular point group: c1
    Full point group: C1

    Geometry (in Angstrom), charge = 0, multiplicity = 1:

       Center              X                  Y                   Z               Mass       
    ------------   -----------------  -----------------  -----------------  -----------------
         C           -0.219916617788    -1.222345825809     0.237673546597    12.000000000000
         O           -1.065208444488     0.696233420031     1.393131707690    15.994914619560
         C           -0.200959957895     0.138711124852     0.514594310879    12.000000000000
         C            0.756453232938     0.933676427365    -0.087481533583    12.000000000000
         H            0.782590640879     1.980328542317     0.146020852120     1.007825032070
         O           -2.707208682540     2.024206467184     3.066167418797    15.994914619560
         C            1.682934683012     0.393517404337    -0.961772298619    12.000000000000
         C            1.654805491742    -0.964983388783    -1.238754147347    12.000000000000
         C            0.702740189648    -1.766668229322    -0.632568998028    12.000000000000
         H            0.685208423056    -2.818150968637    -0.839899846403     1.007825032070
         C           -2.286008806435     1.131047217836     0.868226318330    12.000000000000
         H           -2.873331818705     0.304662161126     0.486766571621     1.007825032070
         H           -2.137254786537     1.839876930654     0.059783706337     1.007825032070
         C           -3.069207396425     1.817593513706     1.961955325092    12.000000000000
         O           -4.259442055788     2.181142933843     1.491483011430    15.994914619560
         H           -4.740004519611     2.618757794183     2.187853478709     1.007825032070
         CL           2.784083998227    -1.705337075018    -2.322715818829    34.968852682000
         CL          -1.388384747223    -2.256467786194     0.992793888842    34.968852682000
         CL           2.852836397716     1.448620631919    -1.677932384996    34.968852682000

  Nuclear repulsion = 1165.826499390743265

  ==> Basis Set <==

  Basis Set: 6-31G(D)
    Blend: 6-31G(D)
    Number of shells: 100
    Number of basis function: 232
    Number of Cartesian functions: 232
    Spherical Harmonics?: false
    Max angular momentum: 2

  ==> DFJKGrad: Density-Fitted SCF Gradients <==

    Gradient:                    1
    J tasked:                  Yes
    K tasked:                  Yes
    wK tasked:                  No
    OpenMP threads:             16
    Integrals threads:          16
    Memory (MB):             78678
    Schwarz Cutoff:          0E+00
[...]
     12   H                0.12 -0.04  0.09    0.12 -0.04  0.00    0.27 -0.08  0.11   
     13   H                0.12 -0.06  0.04    0.07  0.01  0.09    0.28 -0.13  0.10   
     14   C                0.02 -0.01  0.00    0.02  0.01 -0.01    0.07 -0.03 -0.00   
     15   O               -0.04  0.01 -0.02   -0.03  0.01 -0.01   -0.11  0.03 -0.05   
     16   H                0.04  0.00  0.06    0.03  0.00  0.04    0.13 -0.01  0.15   
     17   CL               0.01 -0.01 -0.01    0.01 -0.01 -0.01   -0.00  0.00  0.00   
     18   CL              -0.02 -0.02  0.01   -0.02 -0.02  0.02    0.02  0.02 -0.01   
     19   CL              -0.01 -0.01  0.01   -0.01 -0.01  0.00   -0.00 -0.00  0.00   

  Vibration                       40                  41                  42          
  Freq [cm^-1]                1260.0520           1308.0971           1375.8791       
  Irrep                           A                   A                   A           
  Reduced mass [u]              2.4462              2.4867              1.2766        
  Force const [mDyne/A]         2.2883              2.5070              1.4238        
  Turning point v=0 [a0]        0.1976              0.1924              0.2618        
  RMS dev v=0 [a0 u^1/2]        0.2186              0.2145              0.2092        
  Char temp [K]               1812.9315           1882.0576           1979.5807       
  ----------------------------------------------------------------------------------
      1   C                0.05 -0.03 -0.05   -0.02 -0.01  0.01    0.01 -0.04 -0.02   
      2   O                0.04 -0.02 -0.01   -0.03  0.00 -0.06    0.03 -0.00 -0.01   
      3   C                0.01  0.09  0.01   -0.01  0.01  0.03   -0.05 -0.04  0.03   
      4   C               -0.02 -0.10 -0.01   -0.00  0.01 -0.00   -0.00 -0.01 -0.00   
      5   H                0.57 -0.03 -0.45    0.02  0.01  0.01    0.56  0.07 -0.42   
      6   O               -0.00 -0.00 -0.01   -0.02 -0.02 -0.09   -0.00  0.00 -0.00   
      7   C               -0.12 -0.14  0.07    0.02  0.01 -0.01   -0.02  0.07  0.03   
      8   C               -0.12  0.15  0.13    0.01 -0.00 -0.01    0.06  0.06 -0.03   
      9   C               -0.00  0.04  0.01    0.00 -0.01 -0.00   -0.02 -0.03  0.01   
     10   H                0.46  0.12 -0.35    0.01 -0.02 -0.00   -0.54 -0.11  0.42   
     11   C               -0.03  0.01 -0.01    0.05 -0.01  0.05   -0.01  0.00 -0.00   
     12   H               -0.01 -0.00  0.00    0.29 -0.13 -0.05   -0.03  0.01  0.00   
     13   H               -0.00  0.00 -0.01    0.26 -0.17 -0.06    0.01  0.00  0.00   
     14   C               -0.02  0.01  0.00   -0.19  0.08  0.01    0.00 -0.00  0.00   
     15   O                0.02 -0.00  0.01    0.17 -0.03  0.13   -0.00  0.00 -0.00   
     16   H               -0.03  0.00 -0.03   -0.63  0.10 -0.53    0.01 -0.00  0.01   
     17   CL               0.02 -0.01 -0.02   -0.00  0.00  0.00   -0.00 -0.00  0.00   
     18   CL              -0.00 -0.00  0.00    0.00  0.00 -0.00    0.00  0.00 -0.00   
     19   CL               0.02  0.02 -0.01   -0.00 -0.00  0.00   -0.00 -0.00 -0.00   

  Vibration                       43                  44                  45          
  Freq [cm^-1]                1393.1644           1406.4287           1455.8216       
  Irrep                           A                   A                   A           
  Reduced mass [u]              1.0804              5.1329              1.6523        
  Force const [mDyne/A]         1.2355              5.9821              2.0632        
  Turning point v=0 [a0]        0.2828              0.1291              0.2237        
  RMS dev v=0 [a0 u^1/2]        0.2079              0.2069              0.2033        
  Char temp [K]               2004.4504           2023.5347           2094.6000       
  ----------------------------------------------------------------------------------
      1   C                0.00  0.00  0.00   -0.20  0.08  0.19    0.01 -0.01 -0.01   
      2   O                0.02  0.04 -0.01    0.19 -0.11 -0.09    0.01 -0.01 -0.02   
      3   C                0.00 -0.00 -0.00   -0.13  0.21  0.15   -0.01 -0.01  0.01   
      4   C                0.00 -0.00 -0.00   -0.07 -0.05  0.05    0.00  0.01  0.00   
      5   H               -0.02 -0.00  0.01    0.14 -0.01 -0.14   -0.01  0.01  0.01   
      6   O                0.00  0.01 -0.00   -0.00  0.00 -0.00    0.04 -0.01  0.04   
      7   C               -0.00 -0.00  0.00    0.05  0.09 -0.02    0.01 -0.00 -0.01   
      8   C               -0.00 -0.00  0.00    0.16  0.03 -0.13   -0.01 -0.01  0.01   
      9   C                0.00  0.00 -0.00   -0.01 -0.23 -0.04   -0.00  0.01  0.00   
     10   H                0.01  0.00 -0.01    0.55 -0.19 -0.50   -0.01  0.01  0.01   
     11   C               -0.01 -0.02  0.01   -0.08  0.03 -0.03   -0.05  0.03  0.02   
     12   H               -0.60  0.36  0.04   -0.09  0.02  0.01    0.33 -0.16 -0.16   
     13   H                0.65 -0.27 -0.07   -0.05  0.05  0.00    0.30 -0.23 -0.14   
     14   C               -0.02 -0.05  0.02    0.00  0.00  0.00   -0.17  0.08  0.03   
     15   O                0.00  0.01 -0.00   -0.01 -0.00 -0.01    0.04 -0.04 -0.06   
     16   H               -0.00 -0.00 -0.00    0.08 -0.01  0.06    0.64 -0.13  0.44   
     17   CL               0.00 -0.00 -0.00   -0.01  0.00  0.01    0.00  0.00 -0.00   
     18   CL              -0.00 -0.00  0.00    0.02  0.01 -0.01   -0.00  0.00  0.00   
     19   CL               0.00  0.00 -0.00   -0.01 -0.01  0.00   -0.00 -0.00  0.00   

  Vibration                       46                  47                  48          
  Freq [cm^-1]                1504.0115           1608.5308           1644.0305       
  Irrep                           A                   A                   A           
  Reduced mass [u]              7.8971              1.9334              1.1869        
  Force const [mDyne/A]        10.5250              2.9474              1.8901        
  Turning point v=0 [a0]        0.1007              0.1968              0.2484        
  RMS dev v=0 [a0 u^1/2]        0.2001              0.1935              0.1914        
  Char temp [K]               2163.9344           2314.3142           2365.3902       
  ----------------------------------------------------------------------------------
      1   C               -0.18  0.05  0.16   -0.01 -0.02  0.00   -0.02 -0.03  0.01   
      2   O               -0.15  0.05  0.09    0.00 -0.01 -0.03    0.00 -0.01 -0.01   
      3   C                0.34  0.10 -0.25    0.00  0.02  0.01   -0.02  0.03  0.02   
      4   C                0.10 -0.22 -0.13    0.03 -0.00 -0.03    0.03  0.01 -0.03   
      5   H               -0.31 -0.33  0.19   -0.11 -0.02  0.08   -0.12 -0.01  0.08   
      6   O                0.02 -0.00  0.01   -0.02  0.01 -0.01    0.00 -0.00 -0.00   
      7   C               -0.30  0.04  0.25   -0.02 -0.02  0.02   -0.01 -0.03  0.00   
      8   C                0.18  0.17 -0.11   -0.00  0.02  0.01   -0.01  0.03  0.01   
      9   C                0.01 -0.15 -0.04    0.02  0.00 -0.01    0.03  0.00 -0.03   
     10   H               -0.19 -0.21  0.12   -0.08 -0.01  0.06   -0.11 -0.02  0.09   
     11   C                0.05 -0.02  0.02   -0.16  0.10  0.08   -0.01 -0.02 -0.08   
     12   H                0.02  0.03 -0.08    0.57 -0.31 -0.13   -0.01 -0.31  0.61   
     13   H               -0.02 -0.09 -0.07    0.55 -0.30 -0.11    0.35  0.43  0.40   
     14   C               -0.07  0.03  0.00    0.16 -0.08 -0.02   -0.02  0.01  0.01   
     15   O                0.02 -0.01 -0.01   -0.04  0.02  0.01    0.01 -0.00 -0.00   
     16   H                0.14 -0.03  0.09   -0.18  0.04 -0.11    0.04 -0.01  0.02   
     17   CL              -0.01 -0.01  0.00    0.00 -0.00 -0.00    0.00 -0.00 -0.00   
     18   CL               0.01 -0.00 -0.01    0.00  0.00 -0.00    0.00  0.00 -0.00   
     19   CL               0.02  0.01 -0.01    0.00  0.00 -0.00    0.00  0.00 -0.00   

  Vibration                       49                  50                  51          
  Freq [cm^-1]                1653.3132           1743.4692           1792.2487       
  Irrep                           A                   A                   A           
  Reduced mass [u]              2.5353             10.3349              6.4924        
  Force const [mDyne/A]         4.0831             18.5091             12.2872        
  Turning point v=0 [a0]        0.1695              0.0817              0.1017        
  RMS dev v=0 [a0 u^1/2]        0.1908              0.1858              0.1833        
  Char temp [K]               2378.7460           2508.4601           2578.6430       
  ----------------------------------------------------------------------------------
      1   C               -0.07 -0.08  0.04    0.02 -0.41 -0.10    0.17 -0.09 -0.16   
      2   O                0.04 -0.03 -0.02    0.02 -0.04 -0.02    0.03 -0.01 -0.02   
      3   C               -0.10  0.10  0.10    0.08  0.48  0.04   -0.22 -0.01  0.17   
      4   C                0.10  0.04 -0.07   -0.04 -0.20 -0.02    0.30  0.03 -0.24   
      5   H               -0.36 -0.02  0.28    0.01 -0.23 -0.06   -0.41 -0.07  0.31   
      6   O                0.00 -0.00  0.00    0.00 -0.00 -0.00   -0.00 -0.00 -0.00   
      7   C               -0.02 -0.13 -0.02   -0.04  0.37  0.11   -0.16  0.06  0.14   
      8   C               -0.06  0.11  0.07   -0.12 -0.41  0.01    0.15  0.04 -0.11   
      9   C                0.14  0.00 -0.12    0.08  0.20 -0.02   -0.27 -0.02  0.22   
     10   H               -0.44 -0.08  0.34   -0.14  0.20  0.15    0.35  0.07 -0.27   
     11   C                0.04 -0.01  0.02    0.01 -0.01 -0.00    0.03 -0.01 -0.00   
     12   H               -0.15  0.25 -0.29   -0.07  0.06 -0.01   -0.08  0.09 -0.04   
     13   H               -0.34 -0.15 -0.18   -0.06 -0.01 -0.01   -0.12 -0.00 -0.02   
     14   C               -0.02  0.01  0.00   -0.01  0.00  0.00   -0.00  0.00  0.00   
     15   O                0.00 -0.00  0.00    0.00 -0.00  0.00   -0.00  0.00  0.00   
     16   H                0.01 -0.00  0.01    0.00 -0.00  0.00    0.00  0.00  0.00   
     17   CL               0.00 -0.00 -0.00    0.00  0.01  0.00   -0.00 -0.00  0.00   
     18   CL               0.00  0.01 -0.00    0.00  0.01 -0.00   -0.00  0.00  0.00   
     19   CL               0.00  0.00 -0.00   -0.00 -0.01 -0.00    0.00 -0.00 -0.00   

  Vibration                       52                  53                  54          
  Freq [cm^-1]                2073.9732           3230.8449           3285.0244       
  Irrep                           A                   A                   A           
  Reduced mass [u]             10.7823              1.0613              1.1031        
  Force const [mDyne/A]        27.3254              6.5272              7.0134        
  Turning point v=0 [a0]        0.0734              0.1874              0.1823        
  RMS dev v=0 [a0 u^1/2]        0.1704              0.1365              0.1354        
  Char temp [K]               2983.9811           4648.4594           4726.4114       
  ----------------------------------------------------------------------------------
      1   C               -0.00  0.00  0.00   -0.00  0.00  0.00   -0.00 -0.00  0.00   
      2   O               -0.02  0.01  0.01   -0.00  0.00  0.00   -0.00  0.00  0.00   
      3   C                0.00 -0.00 -0.01    0.00 -0.00 -0.00    0.00  0.00 -0.00   
      4   C               -0.00  0.00  0.00   -0.00 -0.00  0.00   -0.00  0.00  0.00   
      5   H                0.00 -0.00 -0.00    0.00  0.00  0.00    0.00 -0.00 -0.00   
      6   O               -0.14 -0.09 -0.44    0.00  0.00  0.00    0.00 -0.00  0.00   
      7   C                0.00 -0.00 -0.00    0.00 -0.00 -0.00    0.00 -0.00 -0.00   
      8   C               -0.00 -0.00  0.00   -0.00 -0.00  0.00    0.00  0.00 -0.00   
      9   C                0.00 -0.00 -0.00    0.00  0.00 -0.00   -0.00 -0.00  0.00   
     10   H               -0.00 -0.00  0.00   -0.00 -0.00 -0.00   -0.00  0.00  0.00   
     11   C                0.03 -0.03 -0.06   -0.01  0.01 -0.07   -0.04 -0.08  0.00   
     12   H                0.04 -0.02 -0.10    0.26  0.38  0.15    0.46  0.68  0.31   
     13   H                0.00 -0.05 -0.08   -0.14 -0.57  0.64    0.07  0.30 -0.36   
     14   C                0.18  0.16  0.72   -0.00  0.00  0.00   -0.00 -0.00  0.00   
     15   O               -0.03 -0.01 -0.06    0.00 -0.00 -0.00    0.00  0.00 -0.00   
     16   H                0.33 -0.06  0.25    0.00  0.00  0.00    0.00  0.00  0.00   
     17   CL              -0.00  0.00  0.00   -0.00  0.00  0.00    0.00  0.00  0.00   
     18   CL              -0.00  0.00 -0.00    0.00 -0.00  0.00    0.00 -0.00  0.00   
     19   CL              -0.00 -0.00  0.00   -0.00 -0.00  0.00   -0.00 -0.00  0.00   

  Vibration                       55                  56                  57          
  Freq [cm^-1]                3412.2670           3421.2318           4054.0935       
  Irrep                           A                   A                   A           
  Reduced mass [u]              1.0937              1.0941              1.0653        
  Force const [mDyne/A]         7.5033              7.5452             10.3159        
  Turning point v=0 [a0]        0.1796              0.1793              0.1670        
  RMS dev v=0 [a0 u^1/2]        0.1328              0.1326              0.1219        
  Char temp [K]               4909.4850           4922.3833           5832.9290       
  ----------------------------------------------------------------------------------
      1   C               -0.00  0.00  0.00   -0.00  0.00  0.00   -0.00  0.00  0.00   
      2   O               -0.00  0.00  0.00    0.00 -0.00 -0.00   -0.00  0.00  0.00   
      3   C                0.00  0.00 -0.00   -0.00  0.00  0.00    0.00 -0.00 -0.00   
      4   C               -0.00 -0.09 -0.02    0.00  0.01  0.00   -0.00 -0.00  0.00   
      5   H                0.03  0.97  0.21   -0.00 -0.07 -0.02    0.00  0.00  0.00   
      6   O               -0.00  0.00 -0.00    0.00 -0.00 -0.00   -0.00  0.00 -0.00   
      7   C               -0.00  0.00  0.00    0.00  0.00 -0.00    0.00  0.00 -0.00   
      8   C                0.00  0.00 -0.00    0.00  0.00 -0.00    0.00 -0.00 -0.00   
      9   C               -0.00 -0.01 -0.00   -0.00 -0.09 -0.02   -0.00 -0.00  0.00   
     10   H                0.00  0.07  0.01    0.02  0.97  0.19    0.00  0.00  0.00   
     11   C               -0.00 -0.00  0.00   -0.00  0.00 -0.00   -0.00  0.00  0.00   
     12   H                0.00  0.00  0.00   -0.00 -0.00  0.00   -0.00 -0.00 -0.00   
     13   H                0.00  0.00 -0.00   -0.00 -0.00  0.00   -0.00  0.00 -0.00   
     14   C               -0.00  0.00  0.00    0.00  0.00  0.00    0.00 -0.00 -0.00   
     15   O                0.00  0.00  0.00    0.00 -0.00 -0.00    0.03 -0.03 -0.04   
     16   H                0.00 -0.00 -0.00    0.00 -0.00 -0.00   -0.52  0.46  0.72   
     17   CL              -0.00 -0.00 -0.00   -0.00  0.00  0.00   -0.00  0.00  0.00   
     18   CL              -0.00 -0.00 -0.00    0.00  0.00 -0.00   -0.00  0.00 -0.00   
     19   CL               0.00  0.00 -0.00   -0.00 -0.00  0.00   -0.00 -0.00  0.00   

  ==> Thermochemistry Components <==

  Entropy, S
    Electronic S            0.000 [cal/(mol K)]        0.000 [J/(mol K)]       0.00000000 [mEh/K] (multiplicity = 1)
    Translational S        42.496 [cal/(mol K)]      177.803 [J/(mol K)]       0.06772143 [mEh/K] (mol. weight = 253.9304 [u], P = 101325.00 [Pa])
    Rotational S           33.381 [cal/(mol K)]      139.667 [J/(mol K)]       0.05319639 [mEh/K] (symmetry no. = 1)
    Vibrational S          42.339 [cal/(mol K)]      177.147 [J/(mol K)]       0.06747168 [mEh/K]
  Total S                 118.216 [cal/(mol K)]      494.617 [J/(mol K)]       0.18838949 [mEh/K]
  Correction S              0.000 [cal/(mol K)]        0.000 [J/(mol K)]       0.00000000 [mEh/K]

  Constant volume heat capacity, Cv
    Electronic Cv           0.000 [cal/(mol K)]        0.000 [J/(mol K)]       0.00000000 [mEh/K]
    Translational Cv        2.981 [cal/(mol K)]       12.472 [J/(mol K)]       0.00475022 [mEh/K]
    Rotational Cv           2.981 [cal/(mol K)]       12.472 [J/(mol K)]       0.00475022 [mEh/K]
    Vibrational Cv         38.296 [cal/(mol K)]      160.231 [J/(mol K)]       0.06102889 [mEh/K]
  Total Cv                 44.258 [cal/(mol K)]      185.175 [J/(mol K)]       0.07052933 [mEh/K]
  Correction Cv             0.000 [cal/(mol K)]        0.000 [J/(mol K)]       0.00000000 [mEh/K]

  Constant pressure heat capacity, Cp
    Electronic Cp           0.000 [cal/(mol K)]        0.000 [J/(mol K)]       0.00000000 [mEh/K]
    Translational Cp        4.968 [cal/(mol K)]       20.786 [J/(mol K)]       0.00791704 [mEh/K]
    Rotational Cp           2.981 [cal/(mol K)]       12.472 [J/(mol K)]       0.00475022 [mEh/K]
    Vibrational Cp         38.296 [cal/(mol K)]      160.231 [J/(mol K)]       0.06102889 [mEh/K]
  Total Cp                 46.245 [cal/(mol K)]      193.489 [J/(mol K)]       0.07369615 [mEh/K]
  Correction Cp             0.000 [cal/(mol K)]        0.000 [J/(mol K)]       0.00000000 [mEh/K]

  ==> Thermochemistry Energy Analysis <==

  Raw electronic energy, E0
  Total E0, Electronic energy at well bottom at 0 [K]                -1908.87904078 [Eh]

  Zero-point energy, ZPE_vib = Sum_i nu_i / 2
    Electronic ZPE          0.000 [kcal/mol]        0.000 [kJ/mol]       0.00000000 [Eh]
    Translational ZPE       0.000 [kcal/mol]        0.000 [kJ/mol]       0.00000000 [Eh]
    Rotational ZPE          0.000 [kcal/mol]        0.000 [kJ/mol]       0.00000000 [Eh]
    Vibrational ZPE        80.991 [kcal/mol]      338.867 [kJ/mol]       0.12906779 [Eh]       28327.102 [cm^-1]
  Correction ZPE           80.991 [kcal/mol]      338.867 [kJ/mol]       0.12906779 [Eh]       28327.102 [cm^-1]
  Total ZPE, Electronic energy at 0 [K]                              -1908.74997299 [Eh]

  Thermal Energy, E (includes ZPE)
    Electronic E            0.000 [kcal/mol]        0.000 [kJ/mol]       0.00000000 [Eh]
    Translational E         0.889 [kcal/mol]        3.718 [kJ/mol]       0.00141628 [Eh]
    Rotational E            0.889 [kcal/mol]        3.718 [kJ/mol]       0.00141628 [Eh]
    Vibrational E          87.152 [kcal/mol]      364.644 [kJ/mol]       0.13888536 [Eh]
  Correction E             88.929 [kcal/mol]      372.080 [kJ/mol]       0.14171792 [Eh]
  Total E, Electronic energy at  298.15 [K]                          -1908.73732286 [Eh]

  Enthalpy, H_trans = E_trans + k_B * T
    Electronic H            0.000 [kcal/mol]        0.000 [kJ/mol]       0.00000000 [Eh]
    Translational H         1.481 [kcal/mol]        6.197 [kJ/mol]       0.00236046 [Eh]
    Rotational H            0.889 [kcal/mol]        3.718 [kJ/mol]       0.00141628 [Eh]
    Vibrational H          87.152 [kcal/mol]      364.644 [kJ/mol]       0.13888536 [Eh]
  Correction H             89.522 [kcal/mol]      374.559 [kJ/mol]       0.14266211 [Eh]
  Total H, Enthalpy at  298.15 [K]                                   -1908.73637867 [Eh]

  Gibbs free energy, G = H - T * S
    Electronic G            0.000 [kcal/mol]        0.000 [kJ/mol]       0.00000000 [Eh]
    Translational G       -11.189 [kcal/mol]      -46.814 [kJ/mol]      -0.01783068 [Eh]
    Rotational G           -9.064 [kcal/mol]      -37.923 [kJ/mol]      -0.01444422 [Eh]
    Vibrational G          74.528 [kcal/mol]      311.827 [kJ/mol]       0.11876868 [Eh]
  Correction G             54.276 [kcal/mol]      227.089 [kJ/mol]       0.08649378 [Eh]
  Total G, Free enthalpy at  298.15 [K]                              -1908.79254700 [Eh]

    Psi4 stopped on: Wednesday, 26 September 2018 04:22PM
    Psi4 wall time for execution: 0:30:07.27

*** Psi4 exiting successfully. Buy a developer a beer!
