
    -----------------------------------------------------------------------
          Psi4: An Open-Source Ab Initio Electronic Structure Package
                               Psi4 1.1a2.dev170 

                         Git: Rev {master} e4fcd91 dirty


    J. M. Turney, A. C. Simmonett, R. M. Parrish, E. G. Hohenstein,
    F. A. Evangelista, J. T. Fermann, B. J. Mintz, L. A. Burns, J. J. Wilke,
    M. L. Abrams, N. J. Russ, M. L. Leininger, C. L. Janssen, E. T. Seidl,
    W. D. Allen, H. F. Schaefer, R. A. King, E. F. Valeev, C. D. Sherrill,
    and T. D. Crawford, WIREs Comput. Mol. Sci. 2, 556-565 (2012)
    (doi: 10.1002/wcms.93)


                         Additional Contributions by
    A. E. DePrince, U. Bozkaya, A. Yu. Sokolov, D. G. A. Smith, R. Di Remigio,
    R. M. Richard, J. F. Gonthier, H. R. McAlexander, M. Saitow, and
    B. P. Pritchard
    -----------------------------------------------------------------------


    Psi4 started on: Thursday, 27 September 2018 11:21AM

    Process ID:  12947
    PSIDATADIR: /usr/local/software/miniconda2/envs/p4env/share/psi4
    Memory:     500.0 MiB
    Threads:    8
    
  ==> Input File <==

--------------------------------------------------------------------------
memory 20 Gb

molecule conf7 {
0 1
C         -0.22000       -1.22200        0.23800
O         -1.06500        0.69600        1.39300
C         -0.20100        0.13900        0.51500
C          0.75600        0.93400       -0.08700
H          0.78300        1.98000        0.14600
O         -3.04700        2.96600        2.23200
C          1.68300        0.39300       -0.96200
C          1.65500       -0.96500       -1.23900
C          0.70300       -1.76700       -0.63300
H          0.68500       -2.81800       -0.84000
C         -2.28600        1.13100        0.86800
H         -2.87300        0.30500        0.48700
H         -2.13700        1.84000        0.06000
C         -3.06900        1.81800        1.96200
O         -3.82300        0.92200        2.59400
H         -4.31700        1.36800        3.27600
Cl         2.78400       -1.70500       -2.32300
Cl        -1.38800       -2.25700        0.99300
Cl         2.85300        1.44900       -1.67800
}
set globals {
  reference rhf
  opt_type ts
  g_convergence gau_tight
  basis 6-31G(d)
}
optimize('scf')
--------------------------------------------------------------------------

  Memory set to  20.000 GiB by Python script.
gradient() will perform analytic gradient computation.

*** tstart() called on dakota
*** at Thu Sep 27 11:21:35 2018


         ---------------------------------------------------------
                                   SCF
            by Justin Turney, Rob Parrish, and Andy Simmonett
                              RHF Reference
                        8 Threads,  20000 MiB Core
         ---------------------------------------------------------

  ==> Geometry <==

    Molecular point group: c1
    Full point group: C1

    Geometry (in Angstrom), charge = 0, multiplicity = 1:

       Center              X                  Y                   Z               Mass       
    ------------   -----------------  -----------------  -----------------  -----------------
           C         -0.227854555421    -1.197079370022     0.216799115415    12.000000000000
           O         -1.072854555421     0.720920629978     1.371799115415    15.994914619560
           C         -0.208854555421     0.163920629978     0.493799115415    12.000000000000
           C          0.748145444579     0.958920629978    -0.108200884585    12.000000000000
           H          0.775145444579     2.004920629978     0.124799115415     1.007825032070
           O         -3.054854555421     2.990920629978     2.210799115415    15.994914619560
           C          1.675145444579     0.417920629978    -0.983200884585    12.000000000000
           C          1.647145444579    -0.940079370022    -1.260200884585    12.000000000000
           C          0.695145444579    -1.742079370022    -0.654200884585    12.000000000000
           H          0.677145444579    -2.793079370022    -0.861200884585     1.007825032070
           C         -2.293854555421     1.155920629978     0.846799115415    12.000000000000
           H         -2.880854555421     0.329920629978     0.465799115415     1.007825032070
           H         -2.144854555421     1.864920629978     0.038799115415     1.007825032070
           C         -3.076854555421     1.842920629978     1.940799115415    12.000000000000
           O         -3.830854555421     0.946920629978     2.572799115415    15.994914619560
           H         -4.324854555421     1.392920629978     3.254799115415     1.007825032070
          CL          2.776145444579    -1.680079370022    -2.344200884585    34.968852682000
          CL         -1.395854555421    -2.232079370022     0.971799115415    34.968852682000
          CL          2.845145444579     1.473920629978    -1.699200884585    34.968852682000

  Running in c1 symmetry.

  Rotational constants: A =      0.02770  B =      0.00828  C =      0.00647 [cm^-1]
  Rotational constants: A =    830.46066  B =    248.30771  C =    194.00012 [MHz]
  Nuclear repulsion = 1167.893106812576889

  Charge       = 0
  Multiplicity = 1
  Electrons    = 128
  Nalpha       = 64
  Nbeta        = 64

  ==> Algorithm <==

  SCF Algorithm Type is DF.
  DIIS enabled.
  MOM disabled.
  Fractional occupation disabled.
  Guess Type is SAD.
  Energy threshold   = 1.00e-08
  Density threshold  = 1.00e-08
  Integral threshold = 0.00e+00

  ==> Primary Basis <==

  Basis Set: file /usr/local/software/miniconda2/envs/p4env/share/psi4/basis/6-31g_d_.gbs
    Number of shells: 100
    Number of basis function: 232
    Number of Cartesian functions: 232
    Spherical Harmonics?: false
    Max angular momentum: 2

  ==> Pre-Iterations <==

   -------------------------------------------------------
    Irrep   Nso     Nmo     Nalpha   Nbeta   Ndocc  Nsocc
   -------------------------------------------------------
     A        232     232       0       0       0       0
   -------------------------------------------------------
    Total     232     232      64      64      64       0
   -------------------------------------------------------

  ==> Integral Setup <==

  ==> DFJK: Density-Fitted J/K Matrices <==

    J tasked:                  Yes
    K tasked:                  Yes
    wK tasked:                  No
    OpenMP threads:              8
    Integrals threads:           8
    Memory (MB):             14305
    Algorithm:                Core
    Integral Cache:           NONE
    Schwarz Cutoff:          1E-12
    Fitting Condition:       1E-12

   => Auxiliary Basis Set <=

  Basis Set: file /usr/local/software/miniconda2/envs/p4env/share/psi4/basis/cc-pvdz-jkfit.gbs
    Number of shells: 417
    Number of basis function: 1406
    Number of Cartesian functions: 1406
    Spherical Harmonics?: false
    Max angular momentum: 3

  Minimum eigenvalue in the overlap matrix is 3.7000794760E-04.
  Using Symmetric Orthogonalization.

  SCF Guess: Superposition of Atomic Densities via on-the-fly atomic UHF.

  ==> Iterations <==

                           Total Energy        Delta E     RMS |[F,P]|

   @DF-RHF iter   0: -1914.67311546006204   -1.91467e+03   2.80167e-02 
   @DF-RHF iter   1: -1908.45280732527726    6.22031e+00   3.19019e-03 
   @DF-RHF iter   2: -1908.76682606288068   -3.14019e-01   1.89269e-03 DIIS
   @DF-RHF iter   3: -1908.85377184265394   -8.69458e-02   5.34796e-04 DIIS
   @DF-RHF iter   4: -1908.87220970141698   -1.84379e-02   1.83606e-04 DIIS
   @DF-RHF iter   5: -1908.87409190183143   -1.88220e-03   7.63239e-05 DIIS
   @DF-RHF iter   6: -1908.87446970210772   -3.77800e-04   2.73777e-05 DIIS
   @DF-RHF iter   7: -1908.87452506533100   -5.53632e-05   9.76744e-06 DIIS
   @DF-RHF iter   8: -1908.87453333594658   -8.27062e-06   4.85046e-06 DIIS
   @DF-RHF iter   9: -1908.87453547903465   -2.14309e-06   2.03367e-06 DIIS
   @DF-RHF iter  10: -1908.87453597789204   -4.98857e-07   7.68111e-07 DIIS
   @DF-RHF iter  11: -1908.87453602564528   -4.77532e-08   2.85481e-07 DIIS
   @DF-RHF iter  12: -1908.87453603320046   -7.55517e-09   1.08751e-07 DIIS
   @DF-RHF iter  13: -1908.87453603422523   -1.02477e-09   4.07773e-08 DIIS
   @DF-RHF iter  14: -1908.87453603439144   -1.66210e-10   1.45061e-08 DIIS
   @DF-RHF iter  15: -1908.87453603440918   -1.77351e-11   5.44974e-09 DIIS

  ==> Post-Iterations <==

    Orbital Energies (a.u.)
    -----------------------

    Doubly Occupied:                                                      

       1A   -104.848905     2A   -104.848107     3A   -104.847636  
       4A    -20.629563     5A    -20.619902     6A    -20.575448  
       7A    -11.401834     8A    -11.339352     9A    -11.337863  
      10A    -11.334957    11A    -11.330289    12A    -11.318856  
      13A    -11.284793    14A    -11.277072    15A    -10.581944  
      16A    -10.581357    17A    -10.580862    18A     -8.051394  
      19A     -8.050800    20A     -8.050309    21A     -8.047915  
      22A     -8.047858    23A     -8.047264    24A     -8.047241  
      25A     -8.046766    26A     -8.046764    27A     -1.496167  
      28A     -1.453173    29A     -1.389871    30A     -1.245511  
      31A     -1.187674    32A     -1.155423    33A     -1.115340  
      34A     -1.057366    35A     -1.022708    36A     -0.982471  
      37A     -0.885429    38A     -0.854090    39A     -0.828202  
      40A     -0.749391    41A     -0.741692    42A     -0.720309  
      43A     -0.718875    44A     -0.680109    45A     -0.656699  
      46A     -0.650063    47A     -0.634661    48A     -0.630841  
      49A     -0.609610    50A     -0.594323    51A     -0.578503  
      52A     -0.563744    53A     -0.560029    54A     -0.529946  
      55A     -0.501820    56A     -0.501144    57A     -0.488548  
      58A     -0.481979    59A     -0.474209    60A     -0.462831  
      61A     -0.461002    62A     -0.457667    63A     -0.368178  
      64A     -0.348061  

    Virtual:                                                              

      65A      0.095025    66A      0.102995    67A      0.145970  
      68A      0.161964    69A      0.203930    70A      0.221099  
      71A      0.234603    72A      0.262932    73A      0.283116  
      74A      0.292850    75A      0.309177    76A      0.314827  
      77A      0.341927    78A      0.389165    79A      0.401023  
      80A      0.419969    81A      0.433807    82A      0.463326  
      83A      0.469461    84A      0.477972    85A      0.514766  
      86A      0.523599    87A      0.535479    88A      0.558611  
      89A      0.584906    90A      0.597033    91A      0.600921  
      92A      0.618576    93A      0.622588    94A      0.637687  
      95A      0.651946    96A      0.660003    97A      0.671679  
      98A      0.684868    99A      0.703269   100A      0.721057  
     101A      0.746442   102A      0.759809   103A      0.766315  
     104A      0.787449   105A      0.793907   106A      0.808969  
     107A      0.813388   108A      0.843071   109A      0.854048  
     110A      0.872333   111A      0.889481   112A      0.922421  
     113A      0.932593   114A      0.945657   115A      0.962118  
     116A      0.974632   117A      0.980466   118A      1.008504  
     119A      1.026882   120A      1.041042   121A      1.052147  
     122A      1.067421   123A      1.074306   124A      1.093993  
     125A      1.114037   126A      1.118090   127A      1.118927  
     128A      1.126017   129A      1.127134   130A      1.133844  
     131A      1.146529   132A      1.159063   133A      1.174434  
     134A      1.184150   135A      1.194203   136A      1.206059  
     137A      1.215576   138A      1.219948   139A      1.249367  
     140A      1.260789   141A      1.275329   142A      1.290602  
     143A      1.293125   144A      1.324906   145A      1.337145  
     146A      1.352641   147A      1.359698   148A      1.412455  
     149A      1.420198   150A      1.424823   151A      1.450014  
     152A      1.465337   153A      1.506781   154A      1.523316  
     155A      1.555905   156A      1.595059   157A      1.624987  
     158A      1.647398   159A      1.659776   160A      1.670753  
     161A      1.683171   162A      1.730031   163A      1.747797  
     164A      1.780703   165A      1.794559   166A      1.799872  
     167A      1.824589   168A      1.839791   169A      1.902156  
     170A      1.923698   171A      2.012183   172A      2.022569  
     173A      2.036881   174A      2.061380   175A      2.082970  
     176A      2.092920   177A      2.142932   178A      2.163415  
     179A      2.176891   180A      2.201076   181A      2.218523  
     182A      2.248712   183A      2.259354   184A      2.331720  
     185A      2.345082   186A      2.376229   187A      2.380647  
     188A      2.387213   189A      2.414116   190A      2.438600  
     191A      2.450135   192A      2.472897   193A      2.540100  
     194A      2.545435   195A      2.581747   196A      2.596605  
     197A      2.650847   198A      2.708326   199A      2.743740  
     200A      2.785807   201A      2.844247   202A      2.884389  
     203A      2.900772   204A      2.969226   205A      3.006614  
     206A      3.031709   207A      3.067734   208A      3.077998  
     209A      3.088959   210A      3.114661   211A      3.187714  
     212A      3.222023   213A      3.249833   214A      3.366772  
     215A      3.437765   216A      3.484273   217A      3.486383  
     218A      3.707652   219A      4.260447   220A      4.421259  
     221A      4.433971   222A      4.470545   223A      4.518381  
     224A      4.603977   225A      4.631310   226A      4.669532  
     227A      4.723612   228A      4.745205   229A      4.797759  
     230A      4.871226   231A      4.920872   232A      5.147481  

    Final Occupation by Irrep:
              A 
    DOCC [    64 ]

  Energy converged.

  @DF-RHF Final Energy: -1908.87453603440918

   => Energetics <=

    Nuclear Repulsion Energy =           1167.8931068125768888
    One-Electron Energy =               -4953.5098626121380221
    Two-Electron Energy =                1876.7422197651521856
    DFT Exchange-Correlation Energy =       0.0000000000000000
    Empirical Dispersion Energy =           0.0000000000000000
    PCM Polarization Energy =               0.0000000000000000
    EFP Energy =                            0.0000000000000000
    Total Energy =                      -1908.8745360344091750

    Alert: EFP and PCM quantities not currently incorporated into SCF psivars.

Properties will be evaluated at   0.000000,   0.000000,   0.000000 Bohr

Properties computed using the SCF density matrix

  Nuclear Dipole Moment: (a.u.)
     X:   -11.3107      Y:     4.8790      Z:     5.6754

  Electronic Dipole Moment: (a.u.)
     X:    10.5247      Y:    -5.1973      Z:    -5.8005

  Dipole Moment: (a.u.)
     X:    -0.7860      Y:    -0.3183      Z:    -0.1251     Total:     0.8572

  Dipole Moment: (Debye)
     X:    -1.9978      Y:    -0.8090      Z:    -0.3180     Total:     2.1787


*** tstop() called on dakota at Thu Sep 27 11:22:03 2018
Module time:
	user time   =     107.86 seconds =       1.80 minutes
	system time =       2.51 seconds =       0.04 minutes
	total time  =         28 seconds =       0.47 minutes
Total time:
	user time   =     107.86 seconds =       1.80 minutes
	system time =       2.51 seconds =       0.04 minutes
	total time  =         28 seconds =       0.47 minutes

*** tstart() called on dakota
*** at Thu Sep 27 11:22:03 2018


         ------------------------------------------------------------
                                   SCF GRAD                          
                          Rob Parrish, Justin Turney,                
                       Andy Simmonett, and Alex Sokolov              
         ------------------------------------------------------------

  ==> Geometry <==

    Molecular point group: c1
    Full point group: C1

    Geometry (in Angstrom), charge = 0, multiplicity = 1:

       Center              X                  Y                   Z               Mass       
    ------------   -----------------  -----------------  -----------------  -----------------
           C         -0.227854555421    -1.197079370022     0.216799115415    12.000000000000
           O         -1.072854555421     0.720920629978     1.371799115415    15.994914619560
           C         -0.208854555421     0.163920629978     0.493799115415    12.000000000000
           C          0.748145444579     0.958920629978    -0.108200884585    12.000000000000
           H          0.775145444579     2.004920629978     0.124799115415     1.007825032070
           O         -3.054854555421     2.990920629978     2.210799115415    15.994914619560
           C          1.675145444579     0.417920629978    -0.983200884585    12.000000000000
           C          1.647145444579    -0.940079370022    -1.260200884585    12.000000000000
           C          0.695145444579    -1.742079370022    -0.654200884585    12.000000000000
           H          0.677145444579    -2.793079370022    -0.861200884585     1.007825032070
           C         -2.293854555421     1.155920629978     0.846799115415    12.000000000000
           H         -2.880854555421     0.329920629978     0.465799115415     1.007825032070
           H         -2.144854555421     1.864920629978     0.038799115415     1.007825032070
           C         -3.076854555421     1.842920629978     1.940799115415    12.000000000000
           O         -3.830854555421     0.946920629978     2.572799115415    15.994914619560
           H         -4.324854555421     1.392920629978     3.254799115415     1.007825032070
          CL          2.776145444579    -1.680079370022    -2.344200884585    34.968852682000
          CL         -1.395854555421    -2.232079370022     0.971799115415    34.968852682000
          CL          2.845145444579     1.473920629978    -1.699200884585    34.968852682000

  Nuclear repulsion = 1167.893106812576889

  ==> Basis Set <==

  Basis Set: file /usr/local/software/miniconda2/envs/p4env/share/psi4/basis/6-31g_d_.gbs
    Number of shells: 100
    Number of basis function: 232
    Number of Cartesian functions: 232
    Spherical Harmonics?: false
    Max angular momentum: 2

  ==> DFJKGrad: Density-Fitted SCF Gradients <==

    Gradient:                    1
    J tasked:                  Yes
    K tasked:                  Yes
    wK tasked:                  No
    OpenMP threads:              8
    Integrals threads:           8
    Memory (MB):             14305
    Schwarz Cutoff:          0E+00
    Fitting Condition:       1E-12

   => Auxiliary Basis Set <=

  Basis Set: file /usr/local/software/miniconda2/envs/p4env/share/psi4/basis/cc-pvdz-jkfit.gbs
    Number of shells: 417
    Number of basis function: 1406
    Number of Cartesian functions: 1406
    Spherical Harmonics?: false
    Max angular momentum: 3


  -Total Gradient:
     Atom            X                  Y                   Z
    ------   -----------------  -----------------  -----------------
       1        0.000056908742    -0.000073230928     0.000033273750
       2       -0.001816604160    -0.000016084067    -0.006659745620
       3       -0.002088467005     0.001846308136     0.002007737174
       4       -0.000474999836     0.000684523017     0.000353234997
       5        0.000227505091    -0.000642515949    -0.000017303738
       6       -0.001623135493    -0.006736054084     0.001397686058
       7        0.000289947232    -0.000941792614    -0.000435776596
       8        0.000088505387     0.000188243759     0.000026996124
       9        0.000556132695    -0.000742648397    -0.000606548844
      10       -0.000012725917     0.000375096128     0.000105950635
      11        0.006287246400    -0.006287116480     0.017863144243
      12       -0.002359945433     0.001217418548    -0.001712378423
      13       -0.002937936318    -0.000442300400    -0.002412900646
      14        0.002735642815     0.016763185130    -0.006371579393
      15        0.001484088029    -0.006126612564    -0.002442564597
      16       -0.000412256559     0.000716771650    -0.000978301228
      17       -0.000033387909     0.000027160191     0.000022301516
      18       -0.000222489956    -0.000085406844     0.000000879116
      19        0.000255971783     0.000275055880    -0.000174104418


*** tstop() called on dakota at Thu Sep 27 11:22:17 2018
Module time:
	user time   =      51.08 seconds =       0.85 minutes
	system time =       0.88 seconds =       0.01 minutes
	total time  =         14 seconds =       0.23 minutes
Total time:
	user time   =     158.94 seconds =       2.65 minutes
	system time =       3.39 seconds =       0.06 minutes
	total time  =         42 seconds =       0.70 minutes

			-----------------------------------------
			 OPTKING 2.0: for geometry optimizations 
			  - R.A. King,  Bethel University        
			-----------------------------------------

	Internal coordinates to be generated automatically.
	Detected frag 1 with atoms:  1 2 3 4 5 6 7 8 9 10 11 12 13 14 15 16 17 18 19
	---Fragment 1 Bond Connectivity---
	 1 : 3 9 18
	 2 : 3 11
	 3 : 1 2 4
	 4 : 3 5 7
	 5 : 4
	 6 : 14
	 7 : 4 8 19
	 8 : 7 9 17
	 9 : 1 8 10
	 10 : 9
	 11 : 2 12 13 14
	 12 : 11
	 13 : 11
	 14 : 6 11 15
	 15 : 14 16
	 16 : 15
	 17 : 8
	 18 : 1
	 19 : 7

	---Fragment 1 Geometry and Gradient---
	 C          -0.4305827079       -2.2621521687        0.4096909540
	 O          -2.0274012902        1.3623425542        2.5923246375
	 C          -0.3946779114        0.3097650982        0.9331450928
	 C           1.4137899978        1.8120973738       -0.2044700392
	 H           1.4648126034        3.7887509088        0.2358361498
	 O          -5.7728384855        5.6520208759        4.1778048630
	 C           3.1655661230        0.7897555359       -1.8579804055
	 C           3.1126537913       -1.7764925525       -2.3814345443
	 C           1.3136345128       -3.2920529111       -1.2362605078
	 H           1.2796194424       -5.2781550768       -1.6274338173
	 C          -4.3347568984        2.1843734220        1.6002184177
	 H          -5.4440261384        0.6234596362        0.8802327611
	 H          -4.0531877046        3.5241892502        0.0733197023
	 C          -5.8144124605        3.4826152753        3.6675788071
	 O          -7.2392659647        1.7894206602        4.8618857231
	 H          -8.1727906743        2.6322385155        6.1506789457
	 CL          5.2461545953       -3.1748898909       -4.4298976723
	 CL         -2.6377828311       -4.2180187162        1.8364341843
	 CL          5.3765456985        2.7853063323       -3.2110243166
	             0.0000569087       -0.0000732309        0.0000332737
	            -0.0018166042       -0.0000160841       -0.0066597456
	            -0.0020884670        0.0018463081        0.0020077372
	            -0.0004749998        0.0006845230        0.0003532350
	             0.0002275051       -0.0006425159       -0.0000173037
	            -0.0016231355       -0.0067360541        0.0013976861
	             0.0002899472       -0.0009417926       -0.0004357766
	             0.0000885054        0.0001882438        0.0000269961
	             0.0005561327       -0.0007426484       -0.0006065488
	            -0.0000127259        0.0003750961        0.0001059506
	             0.0062872464       -0.0062871165        0.0178631442
	            -0.0023599454        0.0012174185       -0.0017123784
	            -0.0029379363       -0.0004423004       -0.0024129006
	             0.0027356428        0.0167631851       -0.0063715794
	             0.0014840880       -0.0061266126       -0.0024425646
	            -0.0004122566        0.0007167717       -0.0009783012
	            -0.0000333879        0.0000271602        0.0000223015
	            -0.0002224900       -0.0000854068        0.0000008791
	             0.0002559718        0.0002750559       -0.0001741044

	Previous optimization step data not found.  Starting new optimization.

	---Fragment 1 Intrafragment Coordinates---
	 - Coordinate -           - BOHR/RAD -       - ANG/DEG -
	 R(1,3)           =         2.624891	       1.389032
	 R(1,9)           =         2.610009	       1.381157
	 R(1,18)          =         3.276086	       1.733630
	 R(2,3)           =         2.554718	       1.351898
	 R(2,11)          =         2.642707	       1.398460
	 R(3,4)           =         2.611844	       1.382128
	 R(4,5)           =         2.025742	       1.071977
	 R(4,7)           =         2.616868	       1.384787
	 R(6,14)          =         2.228986	       1.179529
	 R(7,8)           =         2.619625	       1.386246
	 R(7,19)          =         3.271297	       1.731096
	 R(8,9)           =         2.616260	       1.384465
	 R(8,17)          =         3.271627	       1.731270
	 R(9,10)          =         2.024543	       1.071342
	 R(11,12)         =         2.045803	       1.082592
	 R(11,13)         =         2.050807	       1.085240
	 R(11,14)         =         2.854609	       1.510594
	 R(14,15)         =         2.514654	       1.330698
	 R(15,16)         =         1.800777	       0.952930
	 B(1,3,2)         =         2.122890	     121.632615
	 B(1,3,4)         =         2.078536	     119.091369
	 B(1,9,8)         =         2.102476	     120.462985
	 B(1,9,10)        =         2.091769	     119.849529
	 B(2,3,4)         =         2.081061	     119.236009
	 B(2,11,12)       =         1.947869	     111.604695
	 B(2,11,13)       =         1.942122	     111.275378
	 B(2,11,14)       =         1.898793	     108.792836
	 B(3,1,9)         =         2.098154	     120.215389
	 B(3,1,18)        =         2.102883	     120.486326
	 B(3,2,11)        =         2.029009	     116.253670
	 B(3,4,5)         =         2.076050	     118.948930
	 B(3,4,7)         =         2.110651	     120.931411
	 B(4,7,8)         =         2.089152	     119.699564
	 B(4,7,19)        =         2.066294	     118.389900
	 B(5,4,7)         =         2.096343	     120.111586
	 B(6,14,11)       =         2.212725	     126.779778
	 B(6,14,15)       =         2.161789	     123.861373
	 B(7,8,9)         =         2.087373	     119.597678
	 B(7,8,17)        =         2.130180	     122.050342
	 B(8,7,19)        =         2.127738	     121.910406
	 B(8,9,10)        =         2.088937	     119.687277
	 B(9,1,18)        =         2.082086	     119.294757
	 B(9,8,17)        =         2.065624	     118.351535
	 B(11,14,15)      =         1.908624	     109.356080
	 B(12,11,13)      =         1.886919	     108.112509
	 B(12,11,14)      =         1.897391	     108.712510
	 B(13,11,14)      =         1.889414	     108.255473
	 B(14,15,16)      =         1.894948	     108.572535
	 D(1,3,2,11)      =        -1.552427	     -88.947508
	 D(1,3,4,5)       =        -3.116948	    -178.587993
	 D(1,3,4,7)       =         0.006623	       0.379488
	 D(1,9,8,7)       =         0.005593	       0.320466
	 D(1,9,8,17)      =        -3.140148	    -179.917212
	 D(2,3,1,9)       =        -3.106667	    -177.998908
	 D(2,3,1,18)      =         0.022916	       1.313017
	 D(2,3,4,5)       =        -0.014843	      -0.850422
	 D(2,3,4,7)       =         3.108729	     178.117058
	 D(2,11,14,6)     =         1.580873	      90.577355
	 D(2,11,14,15)    =        -1.571025	     -90.013074
	 D(3,1,9,8)       =        -0.000527	      -0.030205
	 D(3,1,9,10)      =         3.138149	     179.802676
	 D(3,2,11,12)     =         1.125354	      64.478009
	 D(3,2,11,13)     =        -0.984162	     -56.388333
	 D(3,2,11,14)     =        -3.064297	    -175.571278
	 D(3,4,7,8)       =        -0.001603	      -0.091842
	 D(3,4,7,19)      =        -3.140953	    -179.963344
	 D(4,3,1,9)       =        -0.005544	      -0.317666
	 D(4,3,1,18)      =         3.124039	     178.994259
	 D(4,3,2,11)      =         1.629693	      93.374521
	 D(4,7,8,9)       =        -0.004527	      -0.259405
	 D(4,7,8,17)      =         3.141372	     179.987378
	 D(5,4,7,8)       =         3.121760	     178.863699
	 D(5,4,7,19)      =        -0.017589	      -1.007803
	 D(6,14,11,12)    =        -2.577737	    -147.693425
	 D(6,14,11,13)    =        -0.531915	     -30.476496
	 D(6,14,15,16)    =        -0.001672	      -0.095824
	 D(7,8,9,10)      =        -3.133087	    -179.512685
	 D(8,9,1,18)      =        -3.130253	    -179.350307
	 D(9,8,7,19)      =         3.134741	     179.607426
	 D(10,9,1,18)     =         0.008423	       0.482574
	 D(10,9,8,17)     =         0.004357	       0.249637
	 D(11,14,15,16)   =        -3.133326	    -179.526331
	 D(12,11,14,15)   =         0.553551	      31.716145
	 D(13,11,14,15)   =         2.599373	     148.933074
	 D(17,8,7,19)     =        -0.002545	      -0.145791
	 R(11,18)         =         6.627680	       3.507217

	Current energy   :     -1908.8745360344

	Generating empirical Hessian (Schlegel '84) for each fragment.
	Taking PRFO optimization step.
	Maximizing along 1 lowest eigenvalue of Hessian.

 RFO min eigenvalues
 -0.002343 -0.000000 -0.000000 -0.000000 -0.000000 -0.000000 -0.000000 -0.000000
 -0.000000 -0.000000 -0.000000 -0.000000 -0.000000 -0.000000 -0.000000 -0.000000
 -0.000000 -0.000000 -0.000000 -0.000000  0.000000  0.000000  0.000000  0.000000
  0.000000  0.000000  0.000000  0.000000  0.000000  0.000000  0.000000  0.000000
  0.000000  0.000000  0.000000  0.003712  0.005149  0.006083  0.012377  0.014214
  0.018380  0.019241  0.020067  0.020075  0.020133  0.020203  0.020381  0.020424
  0.020466  0.061937  0.066148  0.074425  0.109114  0.137618  0.159975  0.159999
  0.160010  0.220817  0.230983  0.239715  0.249864  0.249981  0.249992  0.249997
  0.249998  0.249999  0.250986  0.312993  0.319862  0.323752  0.323936  0.353689
  0.356832  0.369815  0.370610  0.415901  0.439071  0.455654  0.472474  0.481764
  0.485293  0.486948  0.541286  0.570223  0.593415  1.158242

 RFO max eigenvalues
 -0.000000  0.000000
	Norm of target step-size    0.25129

	Back-transformation to cartesian coordinates...
	Could not converge backtransformation.
	Using first guess instead.

	--- Internal Coordinate Step in ANG or DEG, aJ/ANG or AJ/DEG ---
	 ---------------------------------------------------------------------------
	   Coordinate                Previous        Force       Change         New 
	   ----------                --------       ------       ------       ------
	    1 R(1,3)          =      1.389032    -0.008562    -0.001182     1.387850
	    2 R(1,9)          =      1.381157    -0.006724    -0.000667     1.380490
	    3 R(1,18)         =      1.733630    -0.002753    -0.000377     1.733253
	    4 R(2,3)          =      1.351898     0.015877     0.002127     1.354025
	    5 R(2,11)         =      1.398460     0.040246     0.006015     1.404475
	    6 R(3,4)          =      1.382128    -0.002092    -0.000147     1.381981
	    7 R(4,5)          =      1.071977     0.005149     0.000976     1.072952
	    8 R(4,7)          =      1.384787    -0.007755    -0.000773     1.384014
	    9 R(6,14)         =      1.179529     0.051627     0.003459     1.182988
	   10 R(7,8)          =      1.386246     0.002982     0.000500     1.386746
	   11 R(7,19)         =      1.731096    -0.003401    -0.000497     1.730598
	   12 R(8,9)          =      1.384465     0.001211     0.000367     1.384832
	   13 R(8,17)         =      1.731270     0.000390     0.000361     1.731631
	   14 R(9,10)         =      1.071342     0.003199     0.000589     1.071931
	   15 R(11,12)        =      1.082592    -0.007855    -0.001307     1.081286
	   16 R(11,13)        =      1.085240    -0.009097    -0.000645     1.084595
	   17 R(11,14)        =      1.510594     0.042116     0.009133     1.519727
	   18 R(14,15)        =      1.330698    -0.011621     0.003786     1.334484
	   19 R(15,16)        =      0.952930     0.001244     0.005220     0.958150
	   20 B(1,3,2)        =    121.632615    -0.000040    -0.113576   121.519038
	   21 B(1,3,4)        =    119.091369     0.000057     0.149399   119.240767
	   22 B(1,9,8)        =    120.462985    -0.000007    -0.012019   120.450965
	   23 B(1,9,10)       =    119.849529     0.000006     0.020252   119.869780
	   24 B(2,3,4)        =    119.236009    -0.000016    -0.028620   119.207389
	   25 B(2,11,12)      =    111.604695     0.000025    -0.593072   111.011623
	   26 B(2,11,13)      =    111.275378     0.000061    -0.573810   110.701567
	   27 B(2,11,14)      =    108.792836    -0.000631    -2.552309   106.240527
	   28 B(3,1,9)        =    120.215389    -0.000016    -0.063846   120.151543
	   29 B(3,1,18)       =    120.486326    -0.000023    -0.069221   120.417105
	   30 B(3,2,11)       =    116.253670    -0.000019    -0.067395   116.186276
	   31 B(3,4,5)        =    118.948930     0.000002    -0.010891   118.938039
	   32 B(3,4,7)        =    120.931411    -0.000021    -0.068826   120.862585
	   33 B(4,7,8)        =    119.699564    -0.000015    -0.030402   119.669163
	   34 B(4,7,19)       =    118.389900     0.000011     0.030700   118.420600
	   35 B(5,4,7)        =    120.111586     0.000020     0.083161   120.194747
	   36 B(6,14,11)      =    126.779778    -0.000729    -2.187467   124.592312
	   37 B(6,14,15)      =    123.861373    -0.000192    -0.647654   123.213719
	   38 B(7,8,9)        =    119.597678     0.000004     0.026336   119.624014
	   39 B(7,8,17)       =    122.050342    -0.000001    -0.015123   122.035219
	   40 B(8,7,19)       =    121.910406     0.000004    -0.000225   121.910180
	   41 B(8,9,10)       =    119.687277     0.000001    -0.008206   119.679071
	   42 B(9,1,18)       =    119.294757     0.000039     0.132597   119.427354
	   43 B(9,8,17)       =    118.351535    -0.000003    -0.011107   118.340428
	   44 B(11,14,15)     =    109.356080     0.000922     2.804456   112.160536
	   45 B(12,11,13)     =    108.112509     0.000109     1.928262   110.040771
	   46 B(12,11,14)     =    108.712510     0.000278     1.253516   109.966027
	   47 B(13,11,14)     =    108.255473     0.000175     0.534100   108.789573
	   48 B(14,15,16)     =    108.572535     0.000096     0.747830   109.320365
	   49 D(1,3,2,11)     =    -88.947508    -0.000003    -0.709279   -89.656787
	   50 D(1,3,4,5)      =   -178.587993    -0.000002    -0.368344  -178.956336
	   51 D(1,3,4,7)      =      0.379488    -0.000001    -0.117016     0.262472
	   52 D(1,9,8,7)      =      0.320466    -0.000000    -0.034905     0.285561
	   53 D(1,9,8,17)     =   -179.917212    -0.000000    -0.004774  -179.921986
	   54 D(2,3,1,9)      =   -177.998908    -0.000001    -0.110148  -178.109056
	   55 D(2,3,1,18)     =      1.313017    -0.000001    -0.153628     1.159388
	   56 D(2,3,4,5)      =     -0.850422    -0.000001    -0.157075    -1.007497
	   57 D(2,3,4,7)      =    178.117058     0.000001     0.094254   178.211312
	   58 D(2,11,14,6)    =     90.577355     0.000003     2.532002    93.109357
	   59 D(2,11,14,15)   =    -90.013074     0.000010     5.172772   -84.840302
	   60 D(3,1,9,8)      =     -0.030205    -0.000000    -0.033464    -0.063669
	   61 D(3,1,9,10)     =    179.802676    -0.000000    -0.022339   179.780336
	   62 D(3,2,11,12)    =     64.478009     0.000019     0.705525    65.183534
	   63 D(3,2,11,13)    =    -56.388333    -0.000027    -0.947582   -57.335916
	   64 D(3,2,11,14)    =   -175.571278     0.000007     0.284387  -175.286891
	   65 D(3,4,7,8)      =     -0.091842     0.000000     0.050073    -0.041769
	   66 D(3,4,7,19)     =   -179.963344     0.000000     0.006269  -179.957075
	   67 D(4,3,1,9)      =     -0.317666     0.000001     0.108359    -0.209306
	   68 D(4,3,1,18)     =    178.994259     0.000000     0.064880   179.059138
	   69 D(4,3,2,11)     =     93.374521    -0.000004    -0.931742    92.442778
	   70 D(4,7,8,9)      =     -0.259405     0.000000     0.026977    -0.232427
	   71 D(4,7,8,17)     =    179.987378    -0.000000    -0.004321   179.983057
	   72 D(5,4,7,8)      =    178.863699     0.000002     0.303558   179.167258
	   73 D(5,4,7,19)     =     -1.007803     0.000002     0.259754    -0.748049
	   74 D(6,14,11,12)   =   -147.693425    -0.000039     1.012648  -146.680777
	   75 D(6,14,11,13)   =    -30.476496     0.000048     4.375033   -26.101464
	   76 D(6,14,15,16)   =     -0.095824    -0.000013    -1.953299    -2.049123
	   77 D(7,8,9,10)     =   -179.512685    -0.000000    -0.046056  -179.558741
	   78 D(8,9,1,18)     =   -179.350307     0.000000     0.010955  -179.339352
	   79 D(9,8,7,19)     =    179.607426     0.000000     0.072400   179.679826
	   80 D(10,9,1,18)    =      0.482574     0.000000     0.022080     0.504654
	   81 D(10,9,8,17)    =      0.249637    -0.000000    -0.015925     0.233712
	   82 D(11,14,15,16)  =   -179.526331    -0.000019    -4.540229  -184.066560
	   83 D(12,11,14,15)  =     31.716145    -0.000032     3.653418    35.369564
	   84 D(13,11,14,15)  =    148.933074     0.000054     7.015803   155.948877
	   85 D(17,8,7,19)    =     -0.145791     0.000000     0.041101    -0.104690
	   86 R(11,18)        =      3.507217     0.002609     0.011226     3.518443
	 ---------------------------------------------------------------------------
	Successfully symmetrized geometry.

  ==> Convergence Check <==

  Measures of convergence in internal coordinates in au.
  Criteria marked as inactive (o), active & met (*), and active & unmet ( ).
  --------------------------------------------------------------------------------------------- ~
   Step     Total Energy     Delta E     MAX Force     RMS Force      MAX Disp      RMS Disp    ~
  --------------------------------------------------------------------------------------------- ~
    Convergence Criteria             o    1.50e-05 *    1.00e-05 *    6.00e-05 *    4.00e-05 *  ~
  --------------------------------------------------------------------------------------------- ~
      1   -1908.87453603   -1.91e+03 o    1.21e-02      2.34e-03      1.22e-01      2.48e-02    ~
  ---------------------------------------------------------------------------------------------

	Writing optimization data to binary file.
	Structure for next step:
	Cartesian Geometry (in Angstrom)
	    C    -0.2430191396  -1.2049302335   0.2010993438
	    O    -1.1192306480   0.7061190536   1.3432293123
	    C    -0.2333891132   0.1544772696   0.4804666228
	    C     0.7293639484   0.9566064614  -0.1022581145
	    H     0.7427498221   2.0039625037   0.1303203826
	    O    -3.0497588755   2.9867491250   2.1548129095
	    C     1.6745341030   0.4219897795  -0.9603563516
	    C     1.6577091622  -0.9361984619  -1.2398309353
	    C     0.6979132310  -1.7439393502  -0.6532243505
	    H     0.6884760797  -2.7950854822  -0.8630779954
	    C    -2.3292751136   1.1530693567   0.7877305825
	    H    -2.9054757200   0.3257377291   0.3969702886
	    H    -2.1460180074   1.8809752136   0.0048414789
	    C    -3.0908945819   1.8288644459   1.9159179806
	    O    -3.7880143390   0.9561418406   2.6461409913
	    H    -4.1993106507   1.4142514644   3.3803223621
	   CL     2.8101912189  -1.6692989862  -2.3042067530
	   CL    -1.4215721349  -2.2431169226   0.9341388167
	   CL     2.8517842054   1.4841171629  -1.6538533786
			--------------------------
			 OPTKING Finished Execution 
			--------------------------

    Structure for next step:
    Molecular point group: c1
    Full point group: C1

    Geometry (in Angstrom), charge = 0, multiplicity = 1:

    C           -0.240990960247    -1.204366903794     0.198104813981
    O           -1.117202468712     0.706682383346     1.340234782466
    C           -0.231360933886     0.155040599299     0.477472093003
    C            0.731392127697     0.957169791126    -0.105252644366
    H            0.744778001382     2.004525833432     0.127325852810
    O           -3.047730696142     2.987312454728     2.151818379711
    C            1.676562282281     0.422553109202    -0.963350881409
    C            1.659737341564    -0.935635132190    -1.242825465114
    C            0.699941410320    -1.743376020512    -0.656218880309
    H            0.690504258971    -2.794522152450    -0.866072525250
    C           -2.327246934292     1.153632686399     0.784736052657
    H           -2.903447540640     0.326301058829     0.393975758819
    H           -2.143989828061     1.881538543311     0.001846949113
    C           -3.088866402570     1.829427775578     1.912923450783
    O           -3.785986159671     0.956705170307     2.643146461489
    H           -4.197282471382     1.414814794092     3.377327832310
    CL           2.812219398232    -1.668735656479    -2.307201282849
    CL          -1.419543955570    -2.242553592948     0.931144286913
    CL           2.853812384719     1.484680492608    -1.656847908467

gradient() will perform analytic gradient computation.

*** tstart() called on dakota
*** at Thu Sep 27 11:22:17 2018


         ---------------------------------------------------------
                                   SCF
            by Justin Turney, Rob Parrish, and Andy Simmonett
                              RHF Reference
                        8 Threads,  20000 MiB Core
         ---------------------------------------------------------

  ==> Geometry <==

    Molecular point group: c1
    Full point group: C1

    Geometry (in Angstrom), charge = 0, multiplicity = 1:

       Center              X                  Y                   Z               Mass       
    ------------   -----------------  -----------------  -----------------  -----------------
           C         -0.240990960247    -1.204366903794     0.198104813981    12.000000000000
           O         -1.117202468712     0.706682383346     1.340234782466    15.994914619560
           C         -0.231360933886     0.155040599299     0.477472093003    12.000000000000
           C          0.731392127697     0.957169791126    -0.105252644366    12.000000000000
           H          0.744778001382     2.004525833432     0.127325852810     1.007825032070
           O         -3.047730696142     2.987312454728     2.151818379711    15.994914619560
           C          1.676562282281     0.422553109202    -0.963350881409    12.000000000000
           C          1.659737341564    -0.935635132190    -1.242825465114    12.000000000000
           C          0.699941410320    -1.743376020512    -0.656218880309    12.000000000000
           H          0.690504258971    -2.794522152450    -0.866072525250     1.007825032070
           C         -2.327246934292     1.153632686399     0.784736052657    12.000000000000
           H         -2.903447540640     0.326301058829     0.393975758819     1.007825032070
           H         -2.143989828061     1.881538543311     0.001846949113     1.007825032070
           C         -3.088866402570     1.829427775578     1.912923450783    12.000000000000
           O         -3.785986159671     0.956705170307     2.643146461489    15.994914619560
           H         -4.197282471382     1.414814794092     3.377327832310     1.007825032070
          CL          2.812219398232    -1.668735656479    -2.307201282849    34.968852682000
          CL         -1.419543955570    -2.242553592948     0.931144286913    34.968852682000
          CL          2.853812384719     1.484680492608    -1.656847908467    34.968852682000

  Running in c1 symmetry.

  Rotational constants: A =      0.02761  B =      0.00832  C =      0.00649 [cm^-1]
  Rotational constants: A =    827.77615  B =    249.43531  C =    194.48450 [MHz]
  Nuclear repulsion = 1168.021981241195590

  Charge       = 0
  Multiplicity = 1
  Electrons    = 128
  Nalpha       = 64
  Nbeta        = 64

  ==> Algorithm <==

  SCF Algorithm Type is DF.
  DIIS enabled.
  MOM disabled.
  Fractional occupation disabled.
  Guess Type is READ.
  Energy threshold   = 1.00e-08
  Density threshold  = 1.00e-08
  Integral threshold = 0.00e+00

  ==> Primary Basis <==

  Basis Set: file /usr/local/software/miniconda2/envs/p4env/share/psi4/basis/6-31g_d_.gbs
    Number of shells: 100
    Number of basis function: 232
    Number of Cartesian functions: 232
    Spherical Harmonics?: false
    Max angular momentum: 2

  Reading orbitals from file 180, no projection.

  ==> Pre-Iterations <==

   -------------------------------------------------------
    Irrep   Nso     Nmo     Nalpha   Nbeta   Ndocc  Nsocc
   -------------------------------------------------------
     A        232     232       0       0       0       0
   -------------------------------------------------------
    Total     232     232      64      64      64       0
   -------------------------------------------------------

  ==> Integral Setup <==

  ==> DFJK: Density-Fitted J/K Matrices <==

    J tasked:                  Yes
    K tasked:                  Yes
    wK tasked:                  No
    OpenMP threads:              8
    Integrals threads:           8
    Memory (MB):             14305
    Algorithm:                Core
    Integral Cache:           NONE
    Schwarz Cutoff:          1E-12
    Fitting Condition:       1E-12

   => Auxiliary Basis Set <=

  Basis Set: file /usr/local/software/miniconda2/envs/p4env/share/psi4/basis/cc-pvdz-jkfit.gbs
    Number of shells: 417
    Number of basis function: 1406
    Number of Cartesian functions: 1406
    Spherical Harmonics?: false
    Max angular momentum: 3

  Minimum eigenvalue in the overlap matrix is 3.6973358822E-04.
  Using Symmetric Orthogonalization.

  SCF Guess: Orbitals guess was supplied from a previous computation.

  ==> Iterations <==

                           Total Energy        Delta E     RMS |[F,P]|

   @DF-RHF iter   0: -1908.85837209136935   -1.90886e+03   8.08884e-04 
   @DF-RHF iter   1: -1908.87470229959081   -1.63302e-02   1.21390e-04 
   @DF-RHF iter   2: -1908.87545627731106   -7.53978e-04   5.30329e-05 DIIS
   @DF-RHF iter   3: -1908.87559228561940   -1.36008e-04   2.85924e-05 DIIS
   @DF-RHF iter   4: -1908.87563423130450   -4.19457e-05   8.26390e-06 DIIS
   @DF-RHF iter   5: -1908.87564030759677   -6.07629e-06   4.32676e-06 DIIS
   @DF-RHF iter   6: -1908.87564265806964   -2.35047e-06   1.75858e-06 DIIS
   @DF-RHF iter   7: -1908.87564299496853   -3.36899e-07   6.86765e-07 DIIS
   @DF-RHF iter   8: -1908.87564303855652   -4.35880e-08   1.94964e-07 DIIS
   @DF-RHF iter   9: -1908.87564304173020   -3.17368e-09   6.17795e-08 DIIS
   @DF-RHF iter  10: -1908.87564304198349   -2.53294e-10   2.28148e-08 DIIS
   @DF-RHF iter  11: -1908.87564304201624   -3.27418e-11   7.34045e-09 DIIS

  ==> Post-Iterations <==

    Orbital Energies (a.u.)
    -----------------------

    Doubly Occupied:                                                      

       1A   -104.848924     2A   -104.848159     3A   -104.847623  
       4A    -20.629037     5A    -20.619111     6A    -20.573252  
       7A    -11.402125     8A    -11.338888     9A    -11.337888  
      10A    -11.335044    11A    -11.330033    12A    -11.321402  
      13A    -11.284875    14A    -11.277092    15A    -10.581965  
      16A    -10.581419    17A    -10.580841    18A     -8.051416  
      19A     -8.050863    20A     -8.050287    21A     -8.047937  
      22A     -8.047876    23A     -8.047326    24A     -8.047302  
      25A     -8.046746    26A     -8.046743    27A     -1.491786  
      28A     -1.450536    29A     -1.385412    30A     -1.245570  
      31A     -1.187815    32A     -1.155424    33A     -1.115303  
      34A     -1.055937    35A     -1.021658    36A     -0.980953  
      37A     -0.885032    38A     -0.852354    39A     -0.828325  
      40A     -0.748564    41A     -0.740517    42A     -0.719613  
      43A     -0.715117    44A     -0.679627    45A     -0.655594  
      46A     -0.652816    47A     -0.631375    48A     -0.629491  
      49A     -0.609855    50A     -0.593260    51A     -0.577631  
      52A     -0.563326    53A     -0.560306    54A     -0.529906  
      55A     -0.501828    56A     -0.498738    57A     -0.488865  
      58A     -0.482804    59A     -0.474045    60A     -0.461898  
      61A     -0.460859    62A     -0.457557    63A     -0.368256  
      64A     -0.348057  

    Virtual:                                                              

      65A      0.095116    66A      0.102841    67A      0.145996  
      68A      0.163448    69A      0.204003    70A      0.218283  
      71A      0.234593    72A      0.260883    73A      0.282627  
      74A      0.292646    75A      0.309251    76A      0.315512  
      77A      0.337798    78A      0.384280    79A      0.400007  
      80A      0.420138    81A      0.433125    82A      0.462051  
      83A      0.469145    84A      0.478932    85A      0.513943  
      86A      0.521198    87A      0.535818    88A      0.558404  
      89A      0.584650    90A      0.597015    91A      0.600688  
      92A      0.618633    93A      0.622423    94A      0.636892  
      95A      0.651872    96A      0.659687    97A      0.671809  
      98A      0.683613    99A      0.703429   100A      0.720593  
     101A      0.745302   102A      0.761447   103A      0.766325  
     104A      0.785118   105A      0.793216   106A      0.806859  
     107A      0.812583   108A      0.843767   109A      0.854358  
     110A      0.871478   111A      0.889354   112A      0.920057  
     113A      0.937039   114A      0.945997   115A      0.961827  
     116A      0.974932   117A      0.979995   118A      1.008653  
     119A      1.027560   120A      1.041482   121A      1.051940  
     122A      1.068985   123A      1.077696   124A      1.094485  
     125A      1.113338   126A      1.117799   127A      1.119923  
     128A      1.126291   129A      1.127071   130A      1.133543  
     131A      1.145970   132A      1.160181   133A      1.175417  
     134A      1.183750   135A      1.195933   136A      1.205260  
     137A      1.215031   138A      1.220023   139A      1.246265  
     140A      1.260677   141A      1.276660   142A      1.292246  
     143A      1.293361   144A      1.325511   145A      1.338774  
     146A      1.347718   147A      1.361178   148A      1.412628  
     149A      1.420954   150A      1.424877   151A      1.450292  
     152A      1.464155   153A      1.498188   154A      1.520401  
     155A      1.556583   156A      1.593394   157A      1.625551  
     158A      1.646628   159A      1.661394   160A      1.672253  
     161A      1.681915   162A      1.730892   163A      1.748404  
     164A      1.781854   165A      1.793747   166A      1.805358  
     167A      1.823640   168A      1.824521   169A      1.901294  
     170A      1.920318   171A      2.007838   172A      2.019327  
     173A      2.042033   174A      2.062739   175A      2.087998  
     176A      2.095408   177A      2.145015   178A      2.168338  
     179A      2.179351   180A      2.201385   181A      2.218610  
     182A      2.256543   183A      2.260389   184A      2.330791  
     185A      2.338094   186A      2.376842   187A      2.380925  
     188A      2.388269   189A      2.414919   190A      2.437817  
     191A      2.450552   192A      2.469207   193A      2.535378  
     194A      2.543446   195A      2.582168   196A      2.597398  
     197A      2.634386   198A      2.703582   199A      2.737952  
     200A      2.785835   201A      2.843083   202A      2.884390  
     203A      2.897408   204A      2.968125   205A      3.003343  
     206A      3.025862   207A      3.067811   208A      3.073030  
     209A      3.084226   210A      3.109232   211A      3.186471  
     212A      3.211097   213A      3.249541   214A      3.353432  
     215A      3.429142   216A      3.478269   217A      3.486105  
     218A      3.708539   219A      4.262842   220A      4.414776  
     221A      4.430159   222A      4.470718   223A      4.519118  
     224A      4.604288   225A      4.618739   226A      4.660607  
     227A      4.721231   228A      4.743813   229A      4.796544  
     230A      4.867139   231A      4.914251   232A      5.147396  

    Final Occupation by Irrep:
              A 
    DOCC [    64 ]

  Energy converged.

  @DF-RHF Final Energy: -1908.87564304201624

   => Energetics <=

    Nuclear Repulsion Energy =           1168.0219812411955900
    One-Electron Energy =               -4953.8348823082469607
    Two-Electron Energy =                1876.9372580250351348
    DFT Exchange-Correlation Energy =       0.0000000000000000
    Empirical Dispersion Energy =           0.0000000000000000
    PCM Polarization Energy =               0.0000000000000000
    EFP Energy =                            0.0000000000000000
    Total Energy =                      -1908.8756430420162360

    Alert: EFP and PCM quantities not currently incorporated into SCF psivars.

Properties will be evaluated at   0.000000,   0.000000,   0.000000 Bohr

Properties computed using the SCF density matrix

  Nuclear Dipole Moment: (a.u.)
     X:   -11.2467      Y:     4.8993      Z:     5.6506

  Electronic Dipole Moment: (a.u.)
     X:    10.5002      Y:    -5.2177      Z:    -5.7574

  Dipole Moment: (a.u.)
     X:    -0.7465      Y:    -0.3184      Z:    -0.1068     Total:     0.8186

  Dipole Moment: (Debye)
     X:    -1.8975      Y:    -0.8093      Z:    -0.2715     Total:     2.0806


*** tstop() called on dakota at Thu Sep 27 11:22:39 2018
Module time:
	user time   =      81.40 seconds =       1.36 minutes
	system time =       1.60 seconds =       0.03 minutes
	total time  =         22 seconds =       0.37 minutes
Total time:
	user time   =     240.95 seconds =       4.02 minutes
	system time =       5.02 seconds =       0.08 minutes
	total time  =         64 seconds =       1.07 minutes

*** tstart() called on dakota
*** at Thu Sep 27 11:22:39 2018


         ------------------------------------------------------------
                                   SCF GRAD                          
                          Rob Parrish, Justin Turney,                
                       Andy Simmonett, and Alex Sokolov              
         ------------------------------------------------------------

  ==> Geometry <==

    Molecular point group: c1
    Full point group: C1

    Geometry (in Angstrom), charge = 0, multiplicity = 1:

       Center              X                  Y                   Z               Mass       
    ------------   -----------------  -----------------  -----------------  -----------------
           C         -0.240990960247    -1.204366903794     0.198104813981    12.000000000000
           O         -1.117202468712     0.706682383346     1.340234782466    15.994914619560
           C         -0.231360933886     0.155040599299     0.477472093003    12.000000000000
           C          0.731392127697     0.957169791126    -0.105252644366    12.000000000000
           H          0.744778001382     2.004525833432     0.127325852810     1.007825032070
           O         -3.047730696142     2.987312454728     2.151818379711    15.994914619560
           C          1.676562282281     0.422553109202    -0.963350881409    12.000000000000
           C          1.659737341564    -0.935635132190    -1.242825465114    12.000000000000
           C          0.699941410320    -1.743376020512    -0.656218880309    12.000000000000
           H          0.690504258971    -2.794522152450    -0.866072525250     1.007825032070
           C         -2.327246934292     1.153632686399     0.784736052657    12.000000000000
           H         -2.903447540640     0.326301058829     0.393975758819     1.007825032070
           H         -2.143989828061     1.881538543311     0.001846949113     1.007825032070
           C         -3.088866402570     1.829427775578     1.912923450783    12.000000000000
           O         -3.785986159671     0.956705170307     2.643146461489    15.994914619560
           H         -4.197282471382     1.414814794092     3.377327832310     1.007825032070
          CL          2.812219398232    -1.668735656479    -2.307201282849    34.968852682000
          CL         -1.419543955570    -2.242553592948     0.931144286913    34.968852682000
          CL          2.853812384719     1.484680492608    -1.656847908467    34.968852682000

  Nuclear repulsion = 1168.021981241195590

  ==> Basis Set <==

  Basis Set: file /usr/local/software/miniconda2/envs/p4env/share/psi4/basis/6-31g_d_.gbs
    Number of shells: 100
    Number of basis function: 232
    Number of Cartesian functions: 232
    Spherical Harmonics?: false
    Max angular momentum: 2

  ==> DFJKGrad: Density-Fitted SCF Gradients <==

    Gradient:                    1
    J tasked:                  Yes
    K tasked:                  Yes
    wK tasked:                  No
    OpenMP threads:              8
    Integrals threads:           8
    Memory (MB):             14305
    Schwarz Cutoff:          0E+00
    Fitting Condition:       1E-12

   => Auxiliary Basis Set <=

  Basis Set: file /usr/local/software/miniconda2/envs/p4env/share/psi4/basis/cc-pvdz-jkfit.gbs
    Number of shells: 417
    Number of basis function: 1406
    Number of Cartesian functions: 1406
    Spherical Harmonics?: false
    Max angular momentum: 3


  -Total Gradient:
     Atom            X                  Y                   Z
    ------   -----------------  -----------------  -----------------
       1        0.000089070446     0.000146367571    -0.000254744300
       2       -0.002269474166     0.001469532712    -0.002750099266
       3       -0.000278115415    -0.000002546606     0.000406655558
       4       -0.000057538397    -0.000075986622     0.000129814520
       5       -0.000018228575     0.000139675479    -0.000021677259
       6        0.000501875471    -0.002123887570     0.002752904775
       7        0.000019297283    -0.000273026873    -0.000027188521
       8        0.000172902126     0.000247724862    -0.000049008526
       9       -0.000158514390    -0.000061295679     0.000085967235
      10       -0.000055178460    -0.000058169003     0.000031335494
      11        0.006442486390    -0.003353618060     0.003300616459
      12       -0.000591902295     0.000391245463     0.000418296324
      13        0.000529651501     0.000639767006    -0.002302981603
      14        0.001234881493     0.006483289156    -0.009846436096
      15       -0.002175855440    -0.005064101203     0.002431927321
      16       -0.003402424596     0.001264121434     0.005725567064
      17        0.000088607076    -0.000056206000    -0.000096549950
      18       -0.000154649696     0.000155087533     0.000120152403
      19        0.000083109485     0.000132026420    -0.000054551565


*** tstop() called on dakota at Thu Sep 27 11:22:53 2018
Module time:
	user time   =      50.62 seconds =       0.84 minutes
	system time =       0.95 seconds =       0.02 minutes
	total time  =         14 seconds =       0.23 minutes
Total time:
	user time   =     291.58 seconds =       4.86 minutes
	system time =       5.97 seconds =       0.10 minutes
	total time  =         78 seconds =       1.30 minutes

			-----------------------------------------
			 OPTKING 2.0: for geometry optimizations 
			  - R.A. King,  Bethel University        
			-----------------------------------------

	Previous internal coordinate definitions found.
	---Fragment 1 Geometry and Gradient---
	 C          -0.4554069154       -2.2759236117        0.3743638440
	 O          -2.1112067008        1.3354361675        2.5326766926
	 C          -0.4372088029        0.2929842722        0.9022914919
	 C           1.3821308171        1.8087887679       -0.1988986726
	 H           1.4074264524        3.7880048515        0.2406109914
	 O          -5.7593763425        5.6452024128        4.0663474254
	 C           3.1682435582        0.7985096530       -1.8204693357
	 C           3.1364490281       -1.7680941601       -2.3485997600
	 C           1.3226975746       -3.2945032254       -1.2400739670
	 H           1.3048639430       -5.2808815404       -1.6366398839
	 C          -4.3978593494        2.1800498352        1.4829362261
	 H          -5.4867206930        0.6166196381        0.7445062872
	 H          -4.0515536067        3.5555925553        0.0034902280
	 C          -5.8371115619        3.4571174757        3.6149014352
	 O          -7.1544769847        1.8079107618        4.9948229413
	 H          -7.9317143733        2.6736124896        6.3822246640
	 CL          5.3143244882       -3.1534533789       -4.3599785580
	 CL         -2.6825493096       -4.2378121290        1.7596076925
	 CL          5.3929238418        2.8056395259       -3.1309887908
	             0.0000890704        0.0001463676       -0.0002547443
	            -0.0022694742        0.0014695327       -0.0027500993
	            -0.0002781154       -0.0000025466        0.0004066556
	            -0.0000575384       -0.0000759866        0.0001298145
	            -0.0000182286        0.0001396755       -0.0000216773
	             0.0005018755       -0.0021238876        0.0027529048
	             0.0000192973       -0.0002730269       -0.0000271885
	             0.0001729021        0.0002477249       -0.0000490085
	            -0.0001585144       -0.0000612957        0.0000859672
	            -0.0000551785       -0.0000581690        0.0000313355
	             0.0064424864       -0.0033536181        0.0033006165
	            -0.0005919023        0.0003912455        0.0004182963
	             0.0005296515        0.0006397670       -0.0023029816
	             0.0012348815        0.0064832892       -0.0098464361
	            -0.0021758554       -0.0050641012        0.0024319273
	            -0.0034024246        0.0012641214        0.0057255671
	             0.0000886071       -0.0000562060       -0.0000965499
	            -0.0001546497        0.0001550875        0.0001201524
	             0.0000831095        0.0001320264       -0.0000545516

	---Fragment 1 Intrafragment Coordinates---
	 - Coordinate -           - BOHR/RAD -       - ANG/DEG -
	 R(1,3)           =         2.622656	       1.387850
	 R(1,9)           =         2.608749	       1.380490
	 R(1,18)          =         3.275373	       1.733253
	 R(2,3)           =         2.558736	       1.354025
	 R(2,11)          =         2.654074	       1.404475
	 R(3,4)           =         2.611567	       1.381981
	 R(4,5)           =         2.027586	       1.072952
	 R(4,7)           =         2.615407	       1.384014
	 R(6,14)          =         2.235523	       1.182988
	 R(7,8)           =         2.620570	       1.386746
	 R(7,19)          =         3.270357	       1.730598
	 R(8,9)           =         2.616954	       1.384832
	 R(8,17)          =         3.272309	       1.731631
	 R(9,10)          =         2.025656	       1.071931
	 R(11,12)         =         2.043333	       1.081286
	 R(11,13)         =         2.049587	       1.084595
	 R(11,14)         =         2.871868	       1.519727
	 R(14,15)         =         2.521808	       1.334484
	 R(15,16)         =         1.810641	       0.958150
	 B(1,3,2)         =         2.120907	     121.519038
	 B(1,3,4)         =         2.081144	     119.240767
	 B(1,9,8)         =         2.102266	     120.450965
	 B(1,9,10)        =         2.092122	     119.869780
	 B(2,3,4)         =         2.080561	     119.207389
	 B(2,11,12)       =         1.937518	     111.011623
	 B(2,11,13)       =         1.932107	     110.701567
	 B(2,11,14)       =         1.854247	     106.240527
	 B(3,1,9)         =         2.097040	     120.151543
	 B(3,1,18)        =         2.101675	     120.417105
	 B(3,2,11)        =         2.027833	     116.186276
	 B(3,4,5)         =         2.075860	     118.938039
	 B(3,4,7)         =         2.109450	     120.862585
	 B(4,7,8)         =         2.088621	     119.669163
	 B(4,7,19)        =         2.066829	     118.420600
	 B(5,4,7)         =         2.097794	     120.194747
	 B(6,14,11)       =         2.174546	     124.592312
	 B(6,14,15)       =         2.150485	     123.213719
	 B(7,8,9)         =         2.087833	     119.624014
	 B(7,8,17)        =         2.129916	     122.035219
	 B(8,7,19)        =         2.127734	     121.910180
	 B(8,9,10)        =         2.088794	     119.679071
	 B(9,1,18)        =         2.084401	     119.427354
	 B(9,8,17)        =         2.065430	     118.340428
	 B(11,14,15)      =         1.957571	     112.160536
	 B(12,11,13)      =         1.920574	     110.040771
	 B(12,11,14)      =         1.919269	     109.966027
	 B(13,11,14)      =         1.898736	     108.789573
	 B(14,15,16)      =         1.908000	     109.320365
	 D(1,3,2,11)      =        -1.564806	     -89.656787
	 D(1,3,4,5)       =        -3.123377	    -178.956336
	 D(1,3,4,7)       =         0.004581	       0.262472
	 D(1,9,8,7)       =         0.004984	       0.285561
	 D(1,9,8,17)      =        -3.140231	    -179.921986
	 D(2,3,1,9)       =        -3.108589	    -178.109056
	 D(2,3,1,18)      =         0.020235	       1.159388
	 D(2,3,4,5)       =        -0.017584	      -1.007497
	 D(2,3,4,7)       =         3.110374	     178.211312
	 D(2,11,14,6)     =         1.625065	      93.109357
	 D(2,11,14,15)    =        -1.480743	     -84.840302
	 D(3,1,9,8)       =        -0.001111	      -0.063669
	 D(3,1,9,10)      =         3.137759	     179.780336
	 D(3,2,11,12)     =         1.137667	      65.183534
	 D(3,2,11,13)     =        -1.000701	     -57.335916
	 D(3,2,11,14)     =        -3.059333	    -175.286891
	 D(3,4,7,8)       =        -0.000729	      -0.041769
	 D(3,4,7,19)      =        -3.140843	    -179.957075
	 D(4,3,1,9)       =        -0.003653	      -0.209306
	 D(4,3,1,18)      =         3.125172	     179.059138
	 D(4,3,2,11)      =         1.613431	      92.442778
	 D(4,7,8,9)       =        -0.004057	      -0.232427
	 D(4,7,8,17)      =         3.141297	     179.983057
	 D(5,4,7,8)       =         3.127059	     179.167258
	 D(5,4,7,19)      =        -0.013056	      -0.748049
	 D(6,14,11,12)    =        -2.560063	    -146.680777
	 D(6,14,11,13)    =        -0.455556	     -26.101464
	 D(6,14,15,16)    =        -0.035764	      -2.049123
	 D(7,8,9,10)      =        -3.133891	    -179.558741
	 D(8,9,1,18)      =        -3.130062	    -179.339352
	 D(9,8,7,19)      =         3.136005	     179.679826
	 D(10,9,1,18)     =         0.008808	       0.504654
	 D(10,9,8,17)     =         0.004079	       0.233712
	 D(11,14,15,16)   =         3.070618	     175.933440
	 D(12,11,14,15)   =         0.617315	      35.369564
	 D(13,11,14,15)   =         2.721821	     155.948877
	 D(17,8,7,19)     =        -0.001827	      -0.104690
	 R(11,18)         =         6.648894	       3.518443

	Current energy   :     -1908.8756430420

	Energy change for the previous step:
		Projected    :        -0.0004878215
		Actual       :        -0.0011070076

	Performing Bofill update.
	Previous computed or guess Hessian on step 1.
	Steps to be used in Hessian update: 1
	Taking PRFO optimization step.
	Maximizing along 1 lowest eigenvalue of Hessian.

 RFO min eigenvalues
 -0.000615 -0.000000 -0.000000 -0.000000 -0.000000 -0.000000 -0.000000 -0.000000
 -0.000000 -0.000000 -0.000000 -0.000000 -0.000000 -0.000000 -0.000000  0.000000
  0.000000  0.000000  0.000000  0.000000  0.000000  0.000000  0.000000  0.000000
  0.000000  0.000000  0.000000  0.000000  0.000000  0.000000  0.000000  0.000000
  0.000000  0.000000  0.000000  0.000000  0.005149  0.011056  0.012330  0.017099
  0.018447  0.019255  0.020067  0.020075  0.020133  0.020203  0.020413  0.020446
  0.020470  0.061820  0.066178  0.071471  0.109091  0.137572  0.159971  0.159999
  0.162373  0.217821  0.230982  0.239712  0.247463  0.249863  0.249980  0.249995
  0.249998  0.249999  0.257078  0.315529  0.319862  0.323752  0.323934  0.353854
  0.356857  0.369820  0.370611  0.415932  0.439072  0.454998  0.472424  0.481758
  0.485294  0.486965  0.541235  0.570663  0.595846  1.157839

 RFO max eigenvalues
 -0.007396  0.000939
	Norm of target step-size    0.36900

	Back-transformation to cartesian coordinates...
	Successfully converged to displaced geometry.

	--- Internal Coordinate Step in ANG or DEG, aJ/ANG or AJ/DEG ---
	 ---------------------------------------------------------------------------
	   Coordinate                Previous        Force       Change         New 
	   ----------                --------       ------       ------       ------
	    1 R(1,3)          =      1.387850    -0.000856    -0.000029     1.387821
	    2 R(1,9)          =      1.380490    -0.000201    -0.000264     1.380226
	    3 R(1,18)         =      1.733253    -0.001837    -0.000146     1.733107
	    4 R(2,3)          =      1.354025     0.002177    -0.000400     1.353625
	    5 R(2,11)         =      1.404475     0.029013    -0.001333     1.403142
	    6 R(3,4)          =      1.381981    -0.000335    -0.000188     1.381794
	    7 R(4,5)          =      1.072952    -0.001083    -0.000082     1.072871
	    8 R(4,7)          =      1.384014    -0.001426    -0.000237     1.383777
	    9 R(6,14)         =      1.182988     0.012403    -0.000857     1.182130
	   10 R(7,8)          =      1.386746     0.000668    -0.000075     1.386671
	   11 R(7,19)         =      1.730598    -0.001313    -0.000149     1.730449
	   12 R(8,9)          =      1.384832    -0.002276    -0.000148     1.384684
	   13 R(8,17)         =      1.731631    -0.001171    -0.000302     1.731330
	   14 R(9,10)         =      1.071931    -0.000423    -0.000039     1.071891
	   15 R(11,12)        =      1.081286     0.001113    -0.000136     1.081149
	   16 R(11,13)        =      1.084595    -0.017970    -0.000565     1.084030
	   17 R(11,14)        =      1.519727    -0.024418     0.000139     1.519866
	   18 R(14,15)        =      1.334484    -0.081258    -0.004387     1.330096
	   19 R(15,16)        =      0.958150    -0.053157    -0.004976     0.953174
	   20 B(1,3,2)        =    121.519038    -0.000021     0.012919   121.531957
	   21 B(1,3,4)        =    119.240767     0.000007    -0.004914   119.235853
	   22 B(1,9,8)        =    120.450965    -0.000004    -0.007797   120.443168
	   23 B(1,9,10)       =    119.869780     0.000008     0.000986   119.870766
	   24 B(2,3,4)        =    119.207389     0.000014    -0.009306   119.198083
	   25 B(2,11,12)      =    111.011623    -0.000023     0.083702   111.095324
	   26 B(2,11,13)      =    110.701567     0.000088     0.046151   110.747718
	   27 B(2,11,14)      =    106.240527    -0.000139     0.173999   106.414526
	   28 B(3,1,9)        =    120.151543    -0.000002     0.010583   120.162126
	   29 B(3,1,18)       =    120.417105    -0.000009     0.002543   120.419647
	   30 B(3,2,11)       =    116.186276    -0.000014     0.006641   116.192917
	   31 B(3,4,5)        =    118.938039     0.000002     0.007771   118.945810
	   32 B(3,4,7)        =    120.862585    -0.000007    -0.004210   120.858375
	   33 B(4,7,8)        =    119.669163    -0.000002     0.007720   119.676883
	   34 B(4,7,19)       =    118.420600     0.000006    -0.012843   118.407758
	   35 B(5,4,7)        =    120.194747     0.000004    -0.004160   120.190587
	   36 B(6,14,11)      =    124.592312    -0.000091    -0.247670   124.344642
	   37 B(6,14,15)      =    123.213719     0.000263     0.240131   123.453850
	   38 B(7,8,9)        =    119.624014     0.000008    -0.001505   119.622509
	   39 B(7,8,17)       =    122.035219    -0.000003     0.008283   122.043501
	   40 B(8,7,19)       =    121.910180    -0.000004     0.005125   121.915305
	   41 B(8,9,10)       =    119.679071    -0.000003     0.006786   119.685858
	   42 B(9,1,18)       =    119.427354     0.000011    -0.013336   119.414018
	   43 B(9,8,17)       =    118.340428    -0.000004    -0.006780   118.333648
	   44 B(11,14,15)     =    112.160536    -0.000167    -0.068751   112.091785
	   45 B(12,11,13)     =    110.040771     0.000012    -0.241305   109.799466
	   46 B(12,11,14)     =    109.966027     0.000122    -0.186364   109.779663
	   47 B(13,11,14)     =    108.789573    -0.000064     0.137171   108.926744
	   48 B(14,15,16)     =    109.320365    -0.000285    -0.455077   108.865288
	   49 D(1,3,2,11)     =    -89.656787     0.000001     0.431170   -89.225617
	   50 D(1,3,4,5)      =   -178.956336     0.000001     0.074117  -178.882219
	   51 D(1,3,4,7)      =      0.262472    -0.000000     0.025110     0.287582
	   52 D(1,9,8,7)      =      0.285561    -0.000000     0.008265     0.293826
	   53 D(1,9,8,17)     =   -179.921986    -0.000000     0.007612  -179.914374
	   54 D(2,3,1,9)      =   -178.109056     0.000000     0.018138  -178.090918
	   55 D(2,3,1,18)     =      1.159388     0.000002    -0.000926     1.158462
	   56 D(2,3,4,5)      =     -1.007497     0.000000     0.034123    -0.973374
	   57 D(2,3,4,7)      =    178.211312    -0.000000    -0.014884   178.196428
	   58 D(2,11,14,6)    =     93.109357     0.000025    -9.312777    83.796581
	   59 D(2,11,14,15)   =    -84.840302    -0.000005    -7.660656   -92.500959
	   60 D(3,1,9,8)      =     -0.063669     0.000000     0.006770    -0.056900
	   61 D(3,1,9,10)     =    179.780336     0.000000    -0.003649   179.776688
	   62 D(3,2,11,12)    =     65.183534     0.000001    -0.168158    65.015376
	   63 D(3,2,11,13)    =    -57.335916    -0.000013     0.049615   -57.286300
	   64 D(3,2,11,14)    =   -175.286891     0.000013    -0.240813  -175.527704
	   65 D(3,4,7,8)      =     -0.041769    -0.000000    -0.010256    -0.052024
	   66 D(3,4,7,19)     =   -179.957075     0.000000    -0.011830  -179.968905
	   67 D(4,3,1,9)      =     -0.209306     0.000000    -0.023305    -0.232611
	   68 D(4,3,1,18)     =    179.059138     0.000001    -0.042369   179.016770
	   69 D(4,3,2,11)     =     92.442778     0.000001     0.472508    92.915286
	   70 D(4,7,8,9)      =     -0.232427     0.000000    -0.006595    -0.239022
	   71 D(4,7,8,17)     =    179.983057     0.000000    -0.005883   179.977174
	   72 D(5,4,7,8)      =    179.167258    -0.000001    -0.059778   179.107479
	   73 D(5,4,7,19)     =     -0.748049    -0.000000    -0.061352    -0.809401
	   74 D(6,14,11,12)   =   -146.680777     0.000015    -9.212526  -155.893303
	   75 D(6,14,11,13)   =    -26.101464     0.000026    -9.536491   -35.637955
	   76 D(6,14,15,16)   =     -2.049123    -0.000010     2.077032     0.027909
	   77 D(7,8,9,10)     =   -179.558741    -0.000000     0.018673  -179.540068
	   78 D(8,9,1,18)     =   -179.339352    -0.000001     0.025528  -179.313824
	   79 D(9,8,7,19)     =    179.679826    -0.000000    -0.004979   179.674847
	   80 D(10,9,1,18)    =      0.504654    -0.000001     0.015110     0.519763
	   81 D(10,9,8,17)    =      0.233712    -0.000000     0.018020     0.251732
	   82 D(11,14,15,16)  =    175.933440     0.000017     0.430540   176.363980
	   83 D(12,11,14,15)  =     35.369564    -0.000015    -7.560406    27.809157
	   84 D(13,11,14,15)  =    155.948877    -0.000004    -7.884371   148.064506
	   85 D(17,8,7,19)    =     -0.104690    -0.000000    -0.004268    -0.108957
	   86 R(11,18)        =      3.518443     0.003135    -0.007873     3.510570
	 ---------------------------------------------------------------------------
	Successfully symmetrized geometry.

  ==> Convergence Check <==

  Measures of convergence in internal coordinates in au.
  Criteria marked as inactive (o), active & met (*), and active & unmet ( ).
  ---------------------------------------------------------------------------------------------
   Step     Total Energy     Delta E     MAX Force     RMS Force      MAX Disp      RMS Disp   
  ---------------------------------------------------------------------------------------------
    Convergence Criteria             o    1.50e-05 *    1.00e-05 *    6.00e-05 *    4.00e-05 *
  ---------------------------------------------------------------------------------------------
      2   -1908.87564304   -1.11e-03 o    9.86e-03      1.59e-03      1.66e-01      3.98e-02    ~
  ---------------------------------------------------------------------------------------------

	Writing optimization data to binary file.
	Structure for next step:
	Cartesian Geometry (in Angstrom)
	    C    -0.2334698498  -1.2037553814   0.2330723711
	    O    -1.1188595208   0.7269872660   1.3337860221
	    C    -0.2246296668   0.1599517910   0.4905047004
	    C     0.7465257296   0.9506914143  -0.0933977208
	    H     0.7600164902   2.0013957083   0.1231425551
	    O    -2.9516378881   2.9799337330   2.1816612933
	    C     1.7004048937   0.4006112114  -0.9314703173
	    C     1.6841596099  -0.9617758604  -1.1893347032
	    C     0.7161053271  -1.7581855069  -0.6011567669
	    H     0.7070993765  -2.8125635855  -0.7939183514
	    C    -2.3244322237   1.1580435629   0.7596839167
	    H    -2.8948197494   0.3222662986   0.3788712306
	    H    -2.1377487823   1.8687611167  -0.0372790927
	    C    -3.1032612244   1.8509420714   1.8657177919
	    O    -3.9260391389   1.0173123563   2.4959987502
	    H    -4.3470047129   1.4832302793   3.2131105263
	   CL     2.8472008349  -1.7139872661  -2.2280916884
	   CL    -1.4219530267  -2.2280625949   0.9692527768
	   CL     2.8876423760   1.4493986200  -1.6278661673
			--------------------------
			 OPTKING Finished Execution 
			--------------------------

    Structure for next step:
    Molecular point group: c1
    Full point group: C1

    Geometry (in Angstrom), charge = 0, multiplicity = 1:

    C           -0.243218034469    -1.197621135597     0.215281171634
    O           -1.128607705429     0.733121511763     1.315994822655
    C           -0.234377851428     0.166086036786     0.472713500922
    C            0.736777545018     0.956825660120    -0.111188920249
    H            0.750268305550     2.007529954072     0.105351355624
    O           -2.961386072771     2.986067978821     2.163870093904
    C            1.690656709068     0.406745457245    -0.949261516723
    C            1.674411425271    -0.955641614593    -1.207125902657
    C            0.706357142474    -1.752051261102    -0.618947966358
    H            0.697351191903    -2.806429339682    -0.811709550801
    C           -2.334180408312     1.164177808696     0.741892717294
    H           -2.904567934066     0.328400544424     0.361080031132
    H           -2.147496966924     1.874895362489    -0.055070292136
    C           -3.113009409051     1.857076317237     1.847926592480
    O           -3.935787323551     1.023446602094     2.478207550789
    H           -4.356752897511     1.489364525089     3.195319326829
    CL           2.837452650235    -1.707853020241    -2.245882887824
    CL          -1.431701211291    -2.221928349116     0.951461577371
    CL           2.877894191360     1.455532865818    -1.645657366728

gradient() will perform analytic gradient computation.

*** tstart() called on dakota
*** at Thu Sep 27 11:22:53 2018


         ---------------------------------------------------------
                                   SCF
            by Justin Turney, Rob Parrish, and Andy Simmonett
                              RHF Reference
                        8 Threads,  20000 MiB Core
         ---------------------------------------------------------

  ==> Geometry <==

    Molecular point group: c1
    Full point group: C1

    Geometry (in Angstrom), charge = 0, multiplicity = 1:

       Center              X                  Y                   Z               Mass       
    ------------   -----------------  -----------------  -----------------  -----------------
           C         -0.243218034469    -1.197621135597     0.215281171634    12.000000000000
           O         -1.128607705429     0.733121511763     1.315994822655    15.994914619560
           C         -0.234377851428     0.166086036786     0.472713500922    12.000000000000
[...]
		Projected    :        -0.0000000000
		Actual       :         0.0000000017

	Performing Bofill update.
	Previous computed or guess Hessian on step 1.
	Denominators (dg)(dq) or (dq)(dq) are very small.
	 Skipping Hessian update for step 49.
	Denominators (dg)(dq) or (dq)(dq) are very small.
	 Skipping Hessian update for step 48.
	Denominators (dg)(dq) or (dq)(dq) are very small.
	 Skipping Hessian update for step 47.
	Denominators (dg)(dq) or (dq)(dq) are very small.
	 Skipping Hessian update for step 46.
	Denominators (dg)(dq) or (dq)(dq) are very small.
	 Skipping Hessian update for step 45.
	Denominators (dg)(dq) or (dq)(dq) are very small.
	 Skipping Hessian update for step 44.
	Denominators (dg)(dq) or (dq)(dq) are very small.
	 Skipping Hessian update for step 43.
	Denominators (dg)(dq) or (dq)(dq) are very small.
	 Skipping Hessian update for step 42.
	Denominators (dg)(dq) or (dq)(dq) are very small.
	 Skipping Hessian update for step 41.
	Denominators (dg)(dq) or (dq)(dq) are very small.
	 Skipping Hessian update for step 40.
	Denominators (dg)(dq) or (dq)(dq) are very small.
	 Skipping Hessian update for step 39.
	Denominators (dg)(dq) or (dq)(dq) are very small.
	 Skipping Hessian update for step 38.
	Denominators (dg)(dq) or (dq)(dq) are very small.
	 Skipping Hessian update for step 37.
	Denominators (dg)(dq) or (dq)(dq) are very small.
	 Skipping Hessian update for step 36.
	Denominators (dg)(dq) or (dq)(dq) are very small.
	 Skipping Hessian update for step 35.
	Denominators (dg)(dq) or (dq)(dq) are very small.
	 Skipping Hessian update for step 34.
	Denominators (dg)(dq) or (dq)(dq) are very small.
	 Skipping Hessian update for step 33.
	Denominators (dg)(dq) or (dq)(dq) are very small.
	 Skipping Hessian update for step 32.
	Denominators (dg)(dq) or (dq)(dq) are very small.
	 Skipping Hessian update for step 31.
	Denominators (dg)(dq) or (dq)(dq) are very small.
	 Skipping Hessian update for step 30.
	Denominators (dg)(dq) or (dq)(dq) are very small.
	 Skipping Hessian update for step 29.
	Denominators (dg)(dq) or (dq)(dq) are very small.
	 Skipping Hessian update for step 28.
	Denominators (dg)(dq) or (dq)(dq) are very small.
	 Skipping Hessian update for step 27.
	Denominators (dg)(dq) or (dq)(dq) are very small.
	 Skipping Hessian update for step 25.
	Denominators (dg)(dq) or (dq)(dq) are very small.
	 Skipping Hessian update for step 24.
	Denominators (dg)(dq) or (dq)(dq) are very small.
	 Skipping Hessian update for step 23.
	Denominators (dg)(dq) or (dq)(dq) are very small.
	 Skipping Hessian update for step 22.
	Denominators (dg)(dq) or (dq)(dq) are very small.
	 Skipping Hessian update for step 21.
	Steps to be used in Hessian update: 26 20
	Taking PRFO optimization step.
	Maximizing along 1 lowest eigenvalue of Hessian.

 RFO min eigenvalues
 -0.000000 -0.000000 -0.000000 -0.000000 -0.000000 -0.000000 -0.000000 -0.000000
 -0.000000 -0.000000 -0.000000 -0.000000 -0.000000 -0.000000 -0.000000 -0.000000
 -0.000000  0.000000  0.000000  0.000000  0.000000  0.000000  0.000000  0.000000
  0.000000  0.000000  0.000000  0.000000  0.000000  0.000000  0.000000  0.000000
  0.000000  0.000000  0.000000  0.000000  0.001358  0.003406  0.018413  0.019118
  0.019353  0.020073  0.020194  0.020419  0.020435  0.020493  0.023956  0.029845
  0.052224  0.066293  0.068555  0.073527  0.121037  0.137716  0.159970  0.160025
  0.168413  0.226415  0.231600  0.239743  0.247929  0.249972  0.250000  0.250104
  0.250224  0.252833  0.296175  0.320067  0.323693  0.323963  0.336016  0.355080
  0.361687  0.369951  0.370816  0.416128  0.439076  0.455472  0.474901  0.482016
  0.485867  0.492702  0.542711  0.571748  0.600936  1.151415

 RFO max eigenvalues
 -0.001223  0.000000
	Norm of target step-size    0.00023

	Back-transformation to cartesian coordinates...
	Successfully converged to displaced geometry.

	--- Internal Coordinate Step in ANG or DEG, aJ/ANG or AJ/DEG ---
	 ---------------------------------------------------------------------------
	   Coordinate                Previous        Force       Change         New 
	   ----------                --------       ------       ------       ------
	    1 R(1,3)          =      1.387532     0.000010     0.000002     1.387534
	    2 R(1,9)          =      1.380832     0.000001    -0.000000     1.380832
	    3 R(1,18)         =      1.733479     0.000002     0.000000     1.733479
	    4 R(2,3)          =      1.353848     0.000001    -0.000000     1.353848
	    5 R(2,11)         =      1.410598     0.000000     0.000000     1.410599
	    6 R(3,4)          =      1.382440     0.000015     0.000002     1.382442
	    7 R(4,5)          =      1.072872     0.000006     0.000001     1.072873
	    8 R(4,7)          =      1.383469     0.000009     0.000001     1.383470
	    9 R(6,14)         =      1.184234     0.000006    -0.000000     1.184234
	   10 R(7,8)          =      1.387215     0.000006     0.000001     1.387215
	   11 R(7,19)         =      1.730327    -0.000001    -0.000000     1.730327
	   12 R(8,9)          =      1.384215     0.000009     0.000001     1.384217
	   13 R(8,17)         =      1.731572    -0.000001    -0.000000     1.731572
	   14 R(9,10)         =      1.071862     0.000009     0.000002     1.071864
	   15 R(11,12)        =      1.080336     0.000006     0.000001     1.080338
	   16 R(11,13)        =      1.082008     0.000002     0.000001     1.082009
	   17 R(11,14)        =      1.517311    -0.000010    -0.000001     1.517310
	   18 R(14,15)        =      1.323945     0.000000    -0.000000     1.323944
	   19 R(15,16)        =      0.952994    -0.000002    -0.000000     0.952994
	   20 B(1,3,2)        =    121.538708    -0.000000     0.000042   121.538750
	   21 B(1,3,4)        =    119.242891    -0.000000    -0.000058   119.242833
	   22 B(1,9,8)        =    120.441738    -0.000000    -0.000049   120.441689
	   23 B(1,9,10)       =    119.900557     0.000000     0.000130   119.900687
	   24 B(2,3,4)        =    119.182824     0.000000     0.000042   119.182866
	   25 B(2,11,12)      =    110.698689     0.000000     0.000387   110.699076
	   26 B(2,11,13)      =    110.592328    -0.000000    -0.000354   110.591974
	   27 B(2,11,14)      =    105.801644    -0.000000    -0.000360   105.801284
	   28 B(3,1,9)        =    120.150913     0.000000     0.000076   120.150989
	   29 B(3,1,18)       =    120.479735    -0.000000    -0.000046   120.479689
	   30 B(3,2,11)       =    116.381878     0.000000    -0.000114   116.381764
	   31 B(3,4,5)        =    118.851488     0.000000     0.000033   118.851521
	   32 B(3,4,7)        =    120.859851    -0.000000    -0.000021   120.859830
	   33 B(4,7,8)        =    119.659572    -0.000000    -0.000010   119.659561
	   34 B(4,7,19)       =    118.457523    -0.000000    -0.000007   118.457516
	   35 B(5,4,7)        =    120.283091     0.000000    -0.000009   120.283082
	   36 B(6,14,11)      =    123.743180    -0.000000    -0.000032   123.743148
	   37 B(6,14,15)      =    123.755025     0.000000     0.000453   123.755478
	   38 B(7,8,9)        =    119.643915     0.000000     0.000066   119.643981
	   39 B(7,8,17)       =    122.020548    -0.000000    -0.000078   122.020470
	   40 B(8,7,19)       =    121.882687     0.000000     0.000023   121.882710
	   41 B(8,9,10)       =    119.657668    -0.000000    -0.000081   119.657587
	   42 B(9,1,18)       =    119.366674    -0.000000    -0.000021   119.366653
	   43 B(9,8,17)       =    118.335199    -0.000000     0.000017   118.335216
	   44 B(11,14,15)     =    112.501705    -0.000000    -0.000421   112.501283
	   45 B(12,11,13)     =    110.300746     0.000000     0.000234   110.300980
	   46 B(12,11,14)     =    111.150553    -0.000000    -0.000059   111.150494
	   47 B(13,11,14)     =    108.184797     0.000000     0.000119   108.184916
	   48 B(14,15,16)     =    108.618227    -0.000000    -0.000206   108.618021
	   49 D(1,3,2,11)     =    -91.542194     0.000000     0.003257   -91.538937
	   50 D(1,3,4,5)      =   -178.830992    -0.000000    -0.000874  -178.831866
	   51 D(1,3,4,7)      =      0.312809    -0.000000    -0.000660     0.312149
	   52 D(1,9,8,7)      =      0.312325    -0.000000    -0.000511     0.311815
	   53 D(1,9,8,17)     =   -179.895087     0.000000     0.001301  -179.893786
	   54 D(2,3,1,9)      =   -177.996834    -0.000000    -0.000930  -177.997764
	   55 D(2,3,1,18)     =      1.404081     0.000000    -0.000021     1.404060
	   56 D(2,3,4,5)      =     -0.966574    -0.000000    -0.000098    -0.966672
	   57 D(2,3,4,7)      =    178.177227     0.000000     0.000116   178.177343
	   58 D(2,11,14,6)    =     78.118673    -0.000000     0.000070    78.118743
	   59 D(2,11,14,15)   =   -101.775779    -0.000000     0.000365  -101.775414
	   60 D(3,1,9,8)      =     -0.126964     0.000000     0.000720    -0.126244
	   61 D(3,1,9,10)     =    179.802959     0.000000     0.001009   179.803968
	   62 D(3,2,11,12)    =     73.052108     0.000000    -0.005452    73.046656
	   63 D(3,2,11,13)    =    -49.506801    -0.000000    -0.005771   -49.512572
	   64 D(3,2,11,14)    =   -166.430758    -0.000000    -0.005528  -166.436286
	   65 D(3,4,7,8)      =     -0.128513     0.000000     0.000868    -0.127645
	   66 D(3,4,7,19)     =   -179.961924    -0.000000    -0.001319  -179.963243
	   67 D(4,3,1,9)      =     -0.184512    -0.000000    -0.000136    -0.184648
	   68 D(4,3,1,18)     =    179.216402     0.000000     0.000774   179.217176
	   69 D(4,3,2,11)     =     90.644202     0.000000     0.002465    90.646667
	   70 D(4,7,8,9)      =     -0.184772    -0.000000    -0.000278    -0.185050
	   71 D(4,7,8,17)     =   -179.969451    -0.000000    -0.002159  -179.971610
	   72 D(5,4,7,8)      =    179.003063     0.000000     0.001086   179.004149
	   73 D(5,4,7,19)     =     -0.830348    -0.000000    -0.001101    -0.831449
	   74 D(6,14,11,12)   =   -161.659035    -0.000000     0.000283  -161.658751
	   75 D(6,14,11,13)   =    -40.417209     0.000000     0.000614   -40.416596
	   76 D(6,14,15,16)   =     -1.437277     0.000000     0.000807    -1.436470
	   77 D(7,8,9,10)     =   -179.617767    -0.000000    -0.000799  -179.618566
	   78 D(8,9,1,18)     =   -179.534540    -0.000000    -0.000179  -179.534719
	   79 D(9,8,7,19)     =    179.642746     0.000000     0.001986   179.644731
	   80 D(10,9,1,18)    =      0.395382    -0.000000     0.000110     0.395493
	   81 D(10,9,8,17)    =      0.174820     0.000000     0.001013     0.175833
	   82 D(11,14,15,16)  =    178.457160     0.000000     0.000512   178.457673
	   83 D(12,11,14,15)  =     18.446513     0.000000     0.000578    18.447091
	   84 D(13,11,14,15)  =    139.688339     0.000000     0.000908   139.689246
	   85 D(17,8,7,19)    =     -0.141933     0.000000     0.000105    -0.141829
	   86 R(11,18)        =      3.554845    -0.000002    -0.000054     3.554791
	 ---------------------------------------------------------------------------
	Successfully symmetrized geometry.

  ==> Convergence Check <==

  Measures of convergence in internal coordinates in au.
  Criteria marked as inactive (o), active & met (*), and active & unmet ( ).
  ---------------------------------------------------------------------------------------------
   Step     Total Energy     Delta E     MAX Force     RMS Force      MAX Disp      RMS Disp   
  ---------------------------------------------------------------------------------------------
    Convergence Criteria             o    1.50e-05 *    1.00e-05 *    6.00e-05 *    4.00e-05 *
  ---------------------------------------------------------------------------------------------
     50   -1908.87559475    1.69e-09 o    1.87e-06 *    5.02e-07 *    1.01e-04      2.45e-05 *  ~
  ---------------------------------------------------------------------------------------------


  **** Optimization has failed! (in 50 steps) ****

  ==> Optimization Summary <==

  Measures of convergence in internal coordinates in au.
  --------------------------------------------------------------------------------------------------------------- ~
   Step         Total Energy             Delta E       MAX Force       RMS Force        MAX Disp        RMS Disp  ~
  --------------------------------------------------------------------------------------------------------------- ~
      1   -1908.874536034409  -1908.874536034409      0.01211127      0.00233901      0.12244886      0.02480520  ~
      2   -1908.875643042016     -0.001107007607      0.00986289      0.00158597      0.16644317      0.03980559  ~
      3   -1908.875295360589      0.000347681427      0.00520244      0.00114666      0.12970301      0.02659827  ~
      4   -1908.875765405494     -0.000470044905      0.00310710      0.00055231      0.07545242      0.01908514  ~
      5   -1908.875691404015      0.000074001480      0.00117354      0.00025783      0.08509988      0.02060654  ~
      6   -1908.875602866727      0.000088537288      0.00074998      0.00018198      0.11090321      0.02918406  ~
      7   -1908.875489784364      0.000113082363      0.01156676      0.00141752      0.03758258      0.00901158  ~
      8   -1908.875585864260     -0.000096079896      0.00086988      0.00015756      0.26153434      0.05440208  ~
      9   -1908.873417001689      0.002168862571      0.04537749      0.00611475      0.10202981      0.02797197  ~
     10   -1908.875462080573     -0.002045078885      0.00998367      0.00127362      0.05501615      0.01371303  ~
     11   -1908.875574021837     -0.000111941264      0.00108738      0.00016427      0.19680931      0.05354447  ~
     12   -1908.874801288842      0.000772732995      0.03238815      0.00412930      0.15629946      0.03091081  ~
     13   -1908.875350302562     -0.000549013720      0.01466462      0.00212321      0.07207644      0.01302749  ~
     14   -1908.875550824926     -0.000200522364      0.00362852      0.00056372      0.17794765      0.04549884  ~
     15   -1908.874665647359      0.000885177568      0.03398163      0.00429229      0.05157593      0.01425472  ~
     16   -1908.875581778276     -0.000916130918      0.00181587      0.00032022      0.02773484      0.00859178  ~
     17   -1908.875590694812     -0.000008916536      0.00206615      0.00025669      0.00345695      0.00093221  ~
     18   -1908.875594020202     -0.000003325390      0.00010416      0.00002034      0.01009062      0.00176473  ~
     19   -1908.875594242203     -0.000000222001      0.00016381      0.00003036      0.01228772      0.00250721  ~
     20   -1908.875594483381     -0.000000241178      0.00027589      0.00004540      0.00242489      0.00054082  ~
     21   -1908.875594739412     -0.000000256030      0.00005606      0.00001293      0.00118521      0.00036251  ~
     22   -1908.875594770864     -0.000000031453      0.00002311      0.00000479      0.00182280      0.00036023  ~
     23   -1908.875594753833      0.000000017031      0.00002800      0.00000532      0.00368377      0.00113914  ~
     24   -1908.875594708655      0.000000045178      0.00004934      0.00000972      0.00391337      0.00102162  ~
     25   -1908.875594779005     -0.000000070351      0.00005833      0.00001136      0.00484588      0.00121162  ~
     26   -1908.875594615291      0.000000163715      0.00011028      0.00001639      0.00397867      0.00091575  ~
     27   -1908.875594746790     -0.000000131500      0.00001370      0.00000291      0.00104012      0.00025327  ~
     28   -1908.875594752505     -0.000000005715      0.00000388      0.00000122      0.00028764      0.00008391  ~
     29   -1908.875594747801      0.000000004705      0.00000352      0.00000117      0.00029558      0.00008194  ~
     30   -1908.875594752884     -0.000000005084      0.00000223      0.00000083      0.00017225      0.00004112  ~
     31   -1908.875594753278     -0.000000000394      0.00000215      0.00000074      0.00014871      0.00004000  ~
     32   -1908.875594748632      0.000000004646      0.00000178      0.00000064      0.00013120      0.00004024  ~
     33   -1908.875594749207     -0.000000000575      0.00000156      0.00000057      0.00012121      0.00002840  ~
     34   -1908.875594754656     -0.000000005450      0.00000151      0.00000049      0.00010593      0.00002675  ~
     35   -1908.875594749452      0.000000005204      0.00000117      0.00000044      0.00015036      0.00003081  ~
     36   -1908.875594751432     -0.000000001979      0.00000151      0.00000045      0.00016909      0.00002704  ~
     37   -1908.875594747971      0.000000003460      0.00000200      0.00000048      0.00018807      0.00004693  ~
     38   -1908.875594752797     -0.000000004825      0.00000161      0.00000054      0.00018981      0.00004333  ~
     39   -1908.875594747819      0.000000004978      0.00000151      0.00000049      0.00012369      0.00003061  ~
     40   -1908.875594750816     -0.000000002997      0.00000124      0.00000048      0.00013374      0.00003296  ~
     41   -1908.875594757636     -0.000000006819      0.00000135      0.00000042      0.00017904      0.00003214  ~
     42   -1908.875594748493      0.000000009142      0.00000186      0.00000046      0.00018007      0.00003125  ~
     43   -1908.875594749259     -0.000000000766      0.00000209      0.00000050      0.00017817      0.00003160  ~
     44   -1908.875594752959     -0.000000003700      0.00000206      0.00000053      0.00018366      0.00003192  ~
     45   -1908.875594747539      0.000000005420      0.00000210      0.00000051      0.00016664      0.00002673  ~
     46   -1908.875594742723      0.000000004815      0.00000199      0.00000045      0.00013435      0.00002354  ~
     47   -1908.875594750910     -0.000000008186      0.00000168      0.00000042      0.00012163      0.00002354  ~
     48   -1908.875594745433      0.000000005477      0.00000142      0.00000037      0.00011869      0.00002404  ~
     49   -1908.875594753629     -0.000000008196      0.00000138      0.00000048      0.00011053      0.00002059  ~
     50   -1908.875594751940      0.000000001690      0.00000187      0.00000050      0.00010134      0.00002449  ~
  --------------------------------------------------------------------------------------------------------------- ~

	Writing optimization data to binary file.
			--------------------------
			 OPTKING Finished Execution 
			--------------------------

    Structure for next step:
    Molecular point group: c1
    Full point group: C1

    Geometry (in Angstrom), charge = 0, multiplicity = 1:

    C           -0.264894886677    -1.264076512584     0.170729619094
    O           -1.181918283125     0.610787393566     1.340050375244
    C           -0.269704270651     0.086704759073     0.487931070280
    C            0.706643416544     0.908659915583    -0.043369926383
    H            0.708256305955     1.948422802953     0.221104023252
    O           -2.712117487494     3.023706298253     2.144748885381
    C            1.678333092736     0.402101927351    -0.887885898850
    C            1.676194445041    -0.948422899036    -1.204815150364
    C            0.704006257824    -1.775731852594    -0.669589612098
    H            0.705800064396    -2.820413085204    -0.909444177101
    C           -2.367366003255     1.109199568166     0.760319623403
    H           -3.001114251367     0.298856168413     0.430416497686
    H           -2.138641917308     1.767703450642    -0.067207582778
    C           -3.044636471298     1.927730870761     1.843620608108
    O           -4.047113565835     1.279663771290     2.416226096506
    H           -4.415165488459     1.831803746964     3.100240611395
    CL           2.863114821289    -1.647076520717    -2.254311768410
    CL          -1.461888685681    -2.327525238574     0.834983515381
    CL           2.871137840182     1.486514039870    -1.516613236941

	Optimizer: Did not converge!	Cleaning optimization helper files.

*** Psi4 exiting successfully. Buy a developer a beer!
