
    -----------------------------------------------------------------------
          Psi4: An Open-Source Ab Initio Electronic Structure Package
                               Psi4 1.2.1 release

                         Git: Rev {HEAD} 406f4de 


    R. M. Parrish, L. A. Burns, D. G. A. Smith, A. C. Simmonett,
    A. E. DePrince III, E. G. Hohenstein, U. Bozkaya, A. Yu. Sokolov,
    R. Di Remigio, R. M. Richard, J. F. Gonthier, A. M. James,
    H. R. McAlexander, A. Kumar, M. Saitow, X. Wang, B. P. Pritchard,
    P. Verma, H. F. Schaefer III, K. Patkowski, R. A. King, E. F. Valeev,
    F. A. Evangelista, J. M. Turney, T. D. Crawford, and C. D. Sherrill,
    J. Chem. Theory Comput. 13(7) pp 3185--3197 (2017).
    (doi: 10.1021/acs.jctc.7b00174)


                         Additional Contributions by
    P. Kraus, H. Kruse, M. H. Lechner, M. C. Schieber, and R. A. Shaw

    -----------------------------------------------------------------------


    Psi4 started on: Thursday, 27 September 2018 12:49PM

    Process ID: 7127
    Host:       wr60
    PSIDATADIR: /usr/local/hpc1/software_molmod/psi4/psi4conda/share/psi4
    Memory:     500.0 MiB
    Threads:    16
    
  ==> Input File <==

--------------------------------------------------------------------------
memory 110 Gb

molecule conf7 {
C    -0.264894886677    -1.264076512584     0.170729619094
O    -1.181918283125     0.610787393566     1.340050375244
C    -0.269704270651     0.086704759073     0.487931070280
C     0.706643416544     0.908659915583    -0.043369926383
H     0.708256305955     1.948422802953     0.221104023252
O    -2.712117487494     3.023706298253     2.144748885381
C     1.678333092736     0.402101927351    -0.887885898850
C     1.676194445041    -0.948422899036    -1.204815150364
C     0.704006257824    -1.775731852594    -0.669589612098
H     0.705800064396    -2.820413085204    -0.909444177101
C    -2.367366003255     1.109199568166     0.760319623403
H    -3.001114251367     0.298856168413     0.430416497686
H    -2.138641917308     1.767703450642    -0.067207582778
C    -3.044636471298     1.927730870761     1.843620608108
O    -4.047113565835     1.279663771290     2.416226096506
H    -4.415165488459     1.831803746964     3.100240611395
CL     2.863114821289    -1.647076520717    -2.254311768410
CL    -1.461888685681    -2.327525238574     0.834983515381
CL     2.871137840182     1.486514039870    -1.516613236941
}
set globals {
  reference rhf
  g_convergence gau_tight
  basis 6-31G(d)
}
frequency('hf', dertype=1)
--------------------------------------------------------------------------

  Memory set to 102.445 GiB by Python driver.
gradient() will perform analytic gradient computation.

*** tstart() called on wr60
*** at Thu Sep 27 12:49:25 2018

   => Loading Basis Set <=

    Name: 6-31G(D)
    Role: ORBITAL
    Keyword: BASIS
    atoms 1, 3-4, 7-9, 11, 14 entry C          line   111 file /usr/local/hpc1/software_molmod/psi4/psi4conda/share/psi4/basis/6-31g_d_.gbs 
    atoms 2, 6, 15            entry O          line   145 file /usr/local/hpc1/software_molmod/psi4/psi4conda/share/psi4/basis/6-31g_d_.gbs 
    atoms 5, 10, 12-13, 16    entry H          line    44 file /usr/local/hpc1/software_molmod/psi4/psi4conda/share/psi4/basis/6-31g_d_.gbs 
    atoms 17-19               entry CL         line   340 file /usr/local/hpc1/software_molmod/psi4/psi4conda/share/psi4/basis/6-31g_d_.gbs 

    There are an even number of electrons - assuming singlet.
    Specify the multiplicity in the molecule input block.


         ---------------------------------------------------------
                                   SCF
            by Justin Turney, Rob Parrish, Andy Simmonett
                             and Daniel Smith
                              RHF Reference
                       16 Threads, 104904 MiB Core
         ---------------------------------------------------------

  ==> Geometry <==

    Molecular point group: c1
    Full point group: C1

    Geometry (in Angstrom), charge = 0, multiplicity = 1:

       Center              X                  Y                   Z               Mass       
    ------------   -----------------  -----------------  -----------------  -----------------
         C           -0.264894886677    -1.264076512584     0.170729619094    12.000000000000
         O           -1.181918283125     0.610787393566     1.340050375244    15.994914619560
         C           -0.269704270651     0.086704759073     0.487931070280    12.000000000000
         C            0.706643416544     0.908659915583    -0.043369926383    12.000000000000
         H            0.708256305955     1.948422802953     0.221104023252     1.007825032070
         O           -2.712117487494     3.023706298253     2.144748885381    15.994914619560
         C            1.678333092736     0.402101927351    -0.887885898850    12.000000000000
         C            1.676194445041    -0.948422899036    -1.204815150364    12.000000000000
         C            0.704006257824    -1.775731852594    -0.669589612098    12.000000000000
         H            0.705800064396    -2.820413085204    -0.909444177101     1.007825032070
         C           -2.367366003255     1.109199568166     0.760319623403    12.000000000000
         H           -3.001114251367     0.298856168413     0.430416497686     1.007825032070
         H           -2.138641917308     1.767703450642    -0.067207582778     1.007825032070
         C           -3.044636471298     1.927730870761     1.843620608108    12.000000000000
         O           -4.047113565835     1.279663771290     2.416226096506    15.994914619560
         H           -4.415165488459     1.831803746964     3.100240611395     1.007825032070
         CL           2.863114821289    -1.647076520717    -2.254311768410    34.968852682000
         CL          -1.461888685681    -2.327525238574     0.834983515381    34.968852682000
         CL           2.871137840182     1.486514039870    -1.516613236941    34.968852682000

  Running in c1 symmetry.

  Rotational constants: A =      0.02660  B =      0.00842  C =      0.00649 [cm^-1]
  Rotational constants: A =    797.58937  B =    252.54675  C =    194.68111 [MHz]
  Nuclear repulsion = 1166.900463597107773

  Charge       = 0
  Multiplicity = 1
  Electrons    = 128
  Nalpha       = 64
  Nbeta        = 64

  ==> Algorithm <==

  SCF Algorithm Type is DF.
  DIIS enabled.
  MOM disabled.
  Fractional occupation disabled.
  Guess Type is SAD.
  Energy threshold   = 1.00e-08
  Density threshold  = 1.00e-08
  Integral threshold = 0.00e+00

  ==> Primary Basis <==

  Basis Set: 6-31G(D)
    Blend: 6-31G(D)
    Number of shells: 100
    Number of basis function: 232
    Number of Cartesian functions: 232
    Spherical Harmonics?: false
    Max angular momentum: 2

   => Loading Basis Set <=

    Name: (6-31G(D) AUX)
    Role: JKFIT
    Keyword: DF_BASIS_SCF
    atoms 1, 3-4, 7-9, 11, 14 entry C          line   121 file /usr/local/hpc1/software_molmod/psi4/psi4conda/share/psi4/basis/cc-pvdz-jkfit.gbs 
    atoms 2, 6, 15            entry O          line   221 file /usr/local/hpc1/software_molmod/psi4/psi4conda/share/psi4/basis/cc-pvdz-jkfit.gbs 
    atoms 5, 10, 12-13, 16    entry H          line    51 file /usr/local/hpc1/software_molmod/psi4/psi4conda/share/psi4/basis/cc-pvdz-jkfit.gbs 
    atoms 17-19               entry CL         line   667 file /usr/local/hpc1/software_molmod/psi4/psi4conda/share/psi4/basis/cc-pvdz-jkfit.gbs 

  ==> Pre-Iterations <==

   -------------------------------------------------------
    Irrep   Nso     Nmo     Nalpha   Nbeta   Ndocc  Nsocc
   -------------------------------------------------------
     A        232     232       0       0       0       0
   -------------------------------------------------------
    Total     232     232      64      64      64       0
   -------------------------------------------------------

  ==> Integral Setup <==

  ==> DiskDFJK: Density-Fitted J/K Matrices <==

    J tasked:                  Yes
    K tasked:                  Yes
    wK tasked:                  No
    OpenMP threads:             16
    Integrals threads:          16
    Memory (MB):             78678
    Algorithm:                Core
    Integral Cache:           NONE
    Schwarz Cutoff:          1E-12
    Fitting Condition:       1E-12

   => Auxiliary Basis Set <=

  Basis Set: (6-31G(D) AUX)
    Blend: CC-PVDZ-JKFIT
    Number of shells: 417
    Number of basis function: 1406
    Number of Cartesian functions: 1406
    Spherical Harmonics?: false
    Max angular momentum: 3

  Minimum eigenvalue in the overlap matrix is 3.6971723043E-04.
  Using Symmetric Orthogonalization.

  SCF Guess: Superposition of Atomic Densities via on-the-fly atomic UHF.

  ==> Iterations <==

                           Total Energy        Delta E     RMS |[F,P]|

   @DF-RHF iter   0: -1914.17207924163768   -1.91417e+03   1.09217e-01 
   @DF-RHF iter   1: -1908.47128208091885    5.70080e+00   1.29209e-02 
   @DF-RHF iter   2: -1908.77917091498898   -3.07889e-01   7.09165e-03 DIIS
   @DF-RHF iter   3: -1908.85944280141598   -8.02719e-02   2.05608e-03 DIIS
   @DF-RHF iter   4: -1908.87369719229491   -1.42544e-02   6.71996e-04 DIIS
   @DF-RHF iter   5: -1908.87519526295273   -1.49807e-03   2.87618e-04 DIIS
   @DF-RHF iter   6: -1908.87552266323337   -3.27400e-04   1.06640e-04 DIIS
   @DF-RHF iter   7: -1908.87558310260329   -6.04394e-05   3.81493e-05 DIIS
   @DF-RHF iter   8: -1908.87559198874214   -8.88614e-06   1.86056e-05 DIIS
   @DF-RHF iter   9: -1908.87559415469377   -2.16595e-06   8.39795e-06 DIIS
   @DF-RHF iter  10: -1908.87559469357643   -5.38883e-07   2.84200e-06 DIIS
   @DF-RHF iter  11: -1908.87559474333261   -4.97562e-08   9.83169e-07 DIIS
   @DF-RHF iter  12: -1908.87559474763134   -4.29873e-09   4.01482e-07 DIIS
   @DF-RHF iter  13: -1908.87559474814316   -5.11818e-10   1.24059e-07 DIIS
   @DF-RHF iter  14: -1908.87559474823320   -9.00400e-11   4.31100e-08 DIIS
   @DF-RHF iter  15: -1908.87559474824002   -6.82121e-12   1.83782e-08 DIIS
   @DF-RHF iter  16: -1908.87559474824275   -2.72848e-12   7.57918e-09 DIIS

  ==> Post-Iterations <==

    Orbital Energies [Eh]
    ---------------------

    Doubly Occupied:                                                      

       1A   -104.848743     2A   -104.847312     3A   -104.846908  
       4A    -20.633759     5A    -20.617671     6A    -20.571484  
       7A    -11.402091     8A    -11.337805     9A    -11.337002  
      10A    -11.334130    11A    -11.329193    12A    -11.320631  
      13A    -11.284080    14A    -11.275797    15A    -10.581780  
      16A    -10.580579    17A    -10.580132    18A     -8.051232  
      19A     -8.050024    20A     -8.049578    21A     -8.047759  
      22A     -8.047703    23A     -8.046488    24A     -8.046463  
      25A     -8.046039    26A     -8.046036    27A     -1.497532  
      28A     -1.448188    29A     -1.387859    30A     -1.244717  
      31A     -1.187163    32A     -1.154666    33A     -1.114434  
      34A     -1.055562    35A     -1.021740    36A     -0.980989  
      37A     -0.884195    38A     -0.856483    39A     -0.827066  
      40A     -0.748554    41A     -0.740057    42A     -0.718898  
      43A     -0.718055    44A     -0.678830    45A     -0.656313  
      46A     -0.653477    47A     -0.635600    48A     -0.628100  
      49A     -0.609290    50A     -0.592966    51A     -0.577378  
      52A     -0.561315    53A     -0.560307    54A     -0.528974  
      55A     -0.501258    56A     -0.500954    57A     -0.487864  
      58A     -0.481925    59A     -0.474140    60A     -0.461573  
      61A     -0.460277    62A     -0.456684    63A     -0.367303  
      64A     -0.347178  

    Virtual:                                                              

      65A      0.095782    66A      0.103745    67A      0.146469  
      68A      0.163106    69A      0.204487    70A      0.219103  
      71A      0.235500    72A      0.261277    73A      0.284930  
      74A      0.292528    75A      0.309342    76A      0.313350  
      77A      0.337682    78A      0.385267    79A      0.399635  
      80A      0.421211    81A      0.433795    82A      0.462624  
      83A      0.471370    84A      0.479399    85A      0.516833  
      86A      0.523029    87A      0.536359    88A      0.561019  
      89A      0.585169    90A      0.597701    91A      0.602051  
      92A      0.619301    93A      0.622973    94A      0.635573  
      95A      0.652426    96A      0.660345    97A      0.674489  
      98A      0.684581    99A      0.703675   100A      0.722201  
     101A      0.747205   102A      0.755833   103A      0.762812  
     104A      0.787888   105A      0.792124   106A      0.808476  
     107A      0.813538   108A      0.844251   109A      0.854345  
     110A      0.873045   111A      0.889445   112A      0.919657  
     113A      0.932297   114A      0.947942   115A      0.961319  
     116A      0.977759   117A      0.983593   118A      1.008480  
     119A      1.030997   120A      1.036425   121A      1.054212  
     122A      1.067831   123A      1.074367   124A      1.089520  
     125A      1.113118   126A      1.118376   127A      1.119918  
     128A      1.126374   129A      1.128475   130A      1.134944  
     131A      1.146686   132A      1.160609   133A      1.180131  
     134A      1.187539   135A      1.196157   136A      1.196913  
     137A      1.218588   138A      1.225132   139A      1.245364  
     140A      1.261019   141A      1.283172   142A      1.290264  
     143A      1.294197   144A      1.325006   145A      1.339226  
     146A      1.356682   147A      1.358455   148A      1.401080  
     149A      1.417232   150A      1.427307   151A      1.451970  
     152A      1.454138   153A      1.495722   154A      1.526989  
     155A      1.563963   156A      1.586745   157A      1.609619  
     158A      1.641091   159A      1.668460   160A      1.679286  
     161A      1.683604   162A      1.723582   163A      1.749405  
     164A      1.780402   165A      1.793468   166A      1.799317  
     167A      1.824634   168A      1.844578   169A      1.902850  
     170A      1.917417   171A      2.010388   172A      2.024157  
     173A      2.047509   174A      2.061188   175A      2.091362  
     176A      2.102322   177A      2.149514   178A      2.171587  
     179A      2.184439   180A      2.200695   181A      2.220217  
     182A      2.243582   183A      2.261653   184A      2.328934  
     185A      2.335831   186A      2.363350   187A      2.385655  
     188A      2.398293   189A      2.413847   190A      2.438305  
     191A      2.457639   192A      2.462803   193A      2.537848  
     194A      2.550478   195A      2.584092   196A      2.598808  
     197A      2.632975   198A      2.687294   199A      2.753512  
     200A      2.804559   201A      2.842187   202A      2.880139  
     203A      2.889504   204A      2.970794   205A      3.004605  
     206A      3.023959   207A      3.067345   208A      3.078651  
     209A      3.088834   210A      3.114448   211A      3.188250  
     212A      3.217604   213A      3.237151   214A      3.359765  
     215A      3.426088   216A      3.478228   217A      3.487086  
     218A      3.709644   219A      4.262395   220A      4.420433  
     221A      4.435244   222A      4.473714   223A      4.534412  
     224A      4.604692   225A      4.627546   226A      4.655161  
     227A      4.721225   228A      4.743823   229A      4.796739  
     230A      4.866942   231A      4.925021   232A      5.147711  

    Final Occupation by Irrep:
              A 
    DOCC [    64 ]

  Energy converged.

  @DF-RHF Final Energy: -1908.87559474824275

   => Energetics <=

    Nuclear Repulsion Energy =           1166.9004635971077732
    One-Electron Energy =               -4951.6155481581190543
    Two-Electron Energy =                1875.8394898127685337
    Total Energy =                      -1908.8755947482427473



Properties will be evaluated at   0.000000,   0.000000,   0.000000 [a0]

Properties computed using the SCF density matrix

  Nuclear Dipole Moment: [e a0]
     X:   -11.5810      Y:     5.1384      Z:     5.3176

  Electronic Dipole Moment: [e a0]
     X:    10.6368      Y:    -5.3601      Z:    -5.4837

  Dipole Moment: [e a0]
     X:    -0.9442      Y:    -0.2217      Z:    -0.1661     Total:     0.9840

  Dipole Moment: [D]
     X:    -2.3999      Y:    -0.5635      Z:    -0.4221     Total:     2.5011


*** tstop() called on wr60 at Thu Sep 27 12:49:32 2018
Module time:
	user time   =      85.89 seconds =       1.43 minutes
	system time =       2.55 seconds =       0.04 minutes
	total time  =          7 seconds =       0.12 minutes
Total time:
	user time   =      85.89 seconds =       1.43 minutes
	system time =       2.55 seconds =       0.04 minutes
	total time  =          7 seconds =       0.12 minutes

*** tstart() called on wr60
*** at Thu Sep 27 12:49:32 2018


         ------------------------------------------------------------
                                   SCF GRAD                          
                          Rob Parrish, Justin Turney,                
                       Andy Simmonett, and Alex Sokolov              
         ------------------------------------------------------------

  ==> Geometry <==

    Molecular point group: c1
    Full point group: C1

    Geometry (in Angstrom), charge = 0, multiplicity = 1:

       Center              X                  Y                   Z               Mass       
    ------------   -----------------  -----------------  -----------------  -----------------
         C           -0.264894886677    -1.264076512584     0.170729619094    12.000000000000
         O           -1.181918283125     0.610787393566     1.340050375244    15.994914619560
         C           -0.269704270651     0.086704759073     0.487931070280    12.000000000000
         C            0.706643416544     0.908659915583    -0.043369926383    12.000000000000
         H            0.708256305955     1.948422802953     0.221104023252     1.007825032070
         O           -2.712117487494     3.023706298253     2.144748885381    15.994914619560
         C            1.678333092736     0.402101927351    -0.887885898850    12.000000000000
         C            1.676194445041    -0.948422899036    -1.204815150364    12.000000000000
         C            0.704006257824    -1.775731852594    -0.669589612098    12.000000000000
         H            0.705800064396    -2.820413085204    -0.909444177101     1.007825032070
         C           -2.367366003255     1.109199568166     0.760319623403    12.000000000000
         H           -3.001114251367     0.298856168413     0.430416497686     1.007825032070
         H           -2.138641917308     1.767703450642    -0.067207582778     1.007825032070
         C           -3.044636471298     1.927730870761     1.843620608108    12.000000000000
         O           -4.047113565835     1.279663771290     2.416226096506    15.994914619560
         H           -4.415165488459     1.831803746964     3.100240611395     1.007825032070
         CL           2.863114821289    -1.647076520717    -2.254311768410    34.968852682000
         CL          -1.461888685681    -2.327525238574     0.834983515381    34.968852682000
         CL           2.871137840182     1.486514039870    -1.516613236941    34.968852682000

  Nuclear repulsion = 1166.900463597108001

  ==> Basis Set <==

  Basis Set: 6-31G(D)
    Blend: 6-31G(D)
    Number of shells: 100
    Number of basis function: 232
    Number of Cartesian functions: 232
    Spherical Harmonics?: false
    Max angular momentum: 2

  ==> DFJKGrad: Density-Fitted SCF Gradients <==

    Gradient:                    1
    J tasked:                  Yes
    K tasked:                  Yes
    wK tasked:                  No
    OpenMP threads:             16
    Integrals threads:          16
    Memory (MB):             78678
    Schwarz Cutoff:          0E+00
    Fitting Condition:       1E-12

   => Auxiliary Basis Set <=

  Basis Set: (6-31G(D) AUX)
    Blend: CC-PVDZ-JKFIT
    Number of shells: 417
    Number of basis function: 1406
    Number of Cartesian functions: 1406
    Spherical Harmonics?: false
    Max angular momentum: 3


  -Total Gradient:
     Atom            X                  Y                   Z
    ------   -----------------  -----------------  -----------------
       1        0.000001069987    -0.000000076719    -0.000000547849
       2       -0.000000014463     0.000000261939     0.000000189374
       3       -0.000001146163     0.000000000165     0.000001089389
       4        0.000000866733     0.000000511519    -0.000001244299
       5       -0.000000019929    -0.000000054495    -0.000000189176
       6        0.000000699829    -0.000000672404    -0.000000548642
       7        0.000000909280    -0.000000022188     0.000000928085
       8        0.000000461682    -0.000000210918     0.000000752302
       9       -0.000001122169    -0.000000125055     0.000000192267
      10        0.000000149244     0.000000013068    -0.000000252144
      11       -0.000000375839    -0.000000417840    -0.000000105378
      12       -0.000000437331    -0.000000300111    -0.000000080047
      13        0.000000262104     0.000000200723     0.000000073881
      14       -0.000001078089     0.000001301933     0.000001329915
      15        0.000000619602    -0.000000660698    -0.000000454186
      16        0.000000167854    -0.000000015921    -0.000000457850
      17       -0.000000405801     0.000000165154    -0.000000275377
      18       -0.000000224516    -0.000000003042    -0.000000046587
      19       -0.000000381802     0.000000105027    -0.000000353644


*** tstop() called on wr60 at Thu Sep 27 12:49:36 2018
Module time:
	user time   =      57.75 seconds =       0.96 minutes
	system time =       2.40 seconds =       0.04 minutes
	total time  =          4 seconds =       0.07 minutes
Total time:
	user time   =     143.68 seconds =       2.39 minutes
	system time =       4.95 seconds =       0.08 minutes
	total time  =         11 seconds =       0.18 minutes

  Based on options and gradient (rms=1.03E-06), recommend projecting translations and projecting rotations.
hessian() will perform frequency computation by finite difference of analytic gradients.

-------------------------------------------------------------

  Using finite-differences of gradients to determine vibrational frequencies and 
  normal modes.  Resulting frequencies are only valid at stationary points.
	Generating geometries for use with 3-point formula.
	Displacement size will be 5.00e-03.
	Number of atoms is 19.
	Number of irreps is 1.
	Number of SALCS is 51.
	Translations projected? 1. Rotations projected? 1.
	Index of salcs per irrep:
	 1 :  0  1  2  3  4  5  6  7  8  9  10  11  12  13  14  15  16  17  18  19  20  21  22  23  24  25  26  27  28  29  30  31  32  33  34  35  36  37  38  39  40  41  42  43  44  45  46  47  48  49  50 
	Number of SALC's per irrep:
		 Irrep 1: 51
	Number of geometries (including reference) is 103.
	Number of displacements per irrep:
	  Irrep 1: 102

  //>>>>>>>>>>>>>>>>>>>>>>>>>>>>>>>>>>>//
  //   Loading displacement 1 of 103   //
  //<<<<<<<<<<<<<<<<<<<<<<<<<<<<<<<<<<<//
gradient() will perform analytic gradient computation.

*** tstart() called on wr60
*** at Thu Sep 27 12:49:36 2018

   => Loading Basis Set <=

    Name: 6-31G(D)
    Role: ORBITAL
    Keyword: BASIS
    atoms 1, 3-4, 7-9, 11, 14 entry C          line   111 file /usr/local/hpc1/software_molmod/psi4/psi4conda/share/psi4/basis/6-31g_d_.gbs 
    atoms 2, 6, 15            entry O          line   145 file /usr/local/hpc1/software_molmod/psi4/psi4conda/share/psi4/basis/6-31g_d_.gbs 
    atoms 5, 10, 12-13, 16    entry H          line    44 file /usr/local/hpc1/software_molmod/psi4/psi4conda/share/psi4/basis/6-31g_d_.gbs 
    atoms 17-19               entry CL         line   340 file /usr/local/hpc1/software_molmod/psi4/psi4conda/share/psi4/basis/6-31g_d_.gbs 


         ---------------------------------------------------------
                                   SCF
            by Justin Turney, Rob Parrish, Andy Simmonett
                             and Daniel Smith
                              RHF Reference
                       16 Threads, 104904 MiB Core
         ---------------------------------------------------------

  ==> Geometry <==

    Molecular point group: c1
    Full point group: C1

    Geometry (in Angstrom), charge = 0, multiplicity = 1:

       Center              X                  Y                   Z               Mass       
    ------------   -----------------  -----------------  -----------------  -----------------
         C           -0.265634603341    -1.264077754262     0.170738553470    12.000000000000
         O           -1.181882720062     0.610785605157     1.340049684673    15.994914619560
         C           -0.269666418585     0.086705532669     0.487931254421    12.000000000000
         C            0.706672507879     0.908665901373    -0.043377777856    12.000000000000
         H            0.708276907898     1.948430518892     0.221089421579     1.007825032070
         O           -2.712101096653     3.023696159323     2.144736776633    15.994914619560
         C            1.678364338699     0.402111051959    -0.887893153962    12.000000000000
         C            1.676236791300    -0.948415849557    -1.204813637670    12.000000000000
         C            0.704057423161    -1.775729952958    -0.669580040571    12.000000000000
         H            0.705859830904    -2.820412725778    -0.909427832896     1.007825032070
         C           -2.367336465521     1.109183504960     0.760318981097    12.000000000000
         H           -3.001078440080     0.298832344211     0.430422867192     1.007825032070
         H           -2.138620510754     1.767684047171    -0.067213130511     1.007825032070
         C           -3.044611193995     1.927715829098     1.843616530349    12.000000000000
         O           -4.047080955651     1.279643553667     2.416228998554    15.994914619560
         H           -4.415135881505     1.831784702842     3.100240950220     1.007825032070
         CL           2.863160458380    -1.647065753422    -2.254309008938    34.968852682000
         CL          -1.461828461207    -2.327532786772     0.835002662970    34.968852682000
         CL           2.871157727985     1.486529664334    -1.516630829674    34.968852682000

  Running in c1 symmetry.

  Rotational constants: A =      0.02660  B =      0.00842  C =      0.00649 [cm^-1]
  Rotational constants: A =    797.58272  B =    252.54694  C =    194.68064 [MHz]
  Nuclear repulsion = 1166.900290832683822

  Charge       = 0
  Multiplicity = 1
  Electrons    = 128
  Nalpha       = 64
  Nbeta        = 64

  ==> Algorithm <==

  SCF Algorithm Type is DF.
  DIIS enabled.
  MOM disabled.
  Fractional occupation disabled.
  Guess Type is SAD.
  Energy threshold   = 1.00e-08
  Density threshold  = 1.00e-08
  Integral threshold = 0.00e+00

  ==> Primary Basis <==

  Basis Set: 6-31G(D)
    Blend: 6-31G(D)
    Number of shells: 100
    Number of basis function: 232
    Number of Cartesian functions: 232
    Spherical Harmonics?: false
    Max angular momentum: 2

   => Loading Basis Set <=

    Name: (6-31G(D) AUX)
    Role: JKFIT
    Keyword: DF_BASIS_SCF
    atoms 1, 3-4, 7-9, 11, 14 entry C          line   121 file /usr/local/hpc1/software_molmod/psi4/psi4conda/share/psi4/basis/cc-pvdz-jkfit.gbs 
    atoms 2, 6, 15            entry O          line   221 file /usr/local/hpc1/software_molmod/psi4/psi4conda/share/psi4/basis/cc-pvdz-jkfit.gbs 
    atoms 5, 10, 12-13, 16    entry H          line    51 file /usr/local/hpc1/software_molmod/psi4/psi4conda/share/psi4/basis/cc-pvdz-jkfit.gbs 
    atoms 17-19               entry CL         line   667 file /usr/local/hpc1/software_molmod/psi4/psi4conda/share/psi4/basis/cc-pvdz-jkfit.gbs 

  ==> Pre-Iterations <==

   -------------------------------------------------------
    Irrep   Nso     Nmo     Nalpha   Nbeta   Ndocc  Nsocc
   -------------------------------------------------------
     A        232     232       0       0       0       0
   -------------------------------------------------------
    Total     232     232      64      64      64       0
   -------------------------------------------------------

  ==> Integral Setup <==

  ==> DiskDFJK: Density-Fitted J/K Matrices <==

    J tasked:                  Yes
    K tasked:                  Yes
    wK tasked:                  No
    OpenMP threads:             16
    Integrals threads:          16
    Memory (MB):             78678
    Algorithm:                Core
    Integral Cache:           NONE
    Schwarz Cutoff:          1E-12
    Fitting Condition:       1E-12

   => Auxiliary Basis Set <=

  Basis Set: (6-31G(D) AUX)
    Blend: CC-PVDZ-JKFIT
    Number of shells: 417
    Number of basis function: 1406
    Number of Cartesian functions: 1406
    Spherical Harmonics?: false
    Max angular momentum: 3

  Minimum eigenvalue in the overlap matrix is 3.7004738932E-04.
  Using Symmetric Orthogonalization.

  SCF Guess: Superposition of Atomic Densities via on-the-fly atomic UHF.

  ==> Iterations <==

                           Total Energy        Delta E     RMS |[F,P]|

   @DF-RHF iter   0: -1914.02519333441978   -1.91403e+03   1.10226e-01 
   @DF-RHF iter   1: -1908.45129472464578    5.57390e+00   1.41280e-02 
   @DF-RHF iter   2: -1908.76377175810239   -3.12477e-01   8.17286e-03 DIIS
   @DF-RHF iter   3: -1908.86069297630229   -9.69212e-02   2.24072e-03 DIIS
   @DF-RHF iter   4: -1908.87409773711897   -1.34048e-02   6.76452e-04 DIIS
   @DF-RHF iter   5: -1908.87535823888265   -1.26050e-03   2.35191e-04 DIIS
   @DF-RHF iter   6: -1908.87556172516452   -2.03486e-04   7.61776e-05 DIIS
   @DF-RHF iter   7: -1908.87559112179679   -2.93966e-05   2.41570e-05 DIIS
   @DF-RHF iter   8: -1908.87559380560674   -2.68381e-06   7.76858e-06 DIIS
   @DF-RHF iter   9: -1908.87559413690155   -3.31295e-07   3.13050e-06 DIIS
   @DF-RHF iter  10: -1908.87559419527133   -5.83698e-08   1.36516e-06 DIIS
   @DF-RHF iter  11: -1908.87559420741604   -1.21447e-08   5.59135e-07 DIIS
   @DF-RHF iter  12: -1908.87559420951561   -2.09957e-09   2.33328e-07 DIIS
   @DF-RHF iter  13: -1908.87559420981643   -3.00815e-10   9.55791e-08 DIIS
   @DF-RHF iter  14: -1908.87559420986372   -4.72937e-11   3.60808e-08 DIIS
   @DF-RHF iter  15: -1908.87559420987145   -7.73070e-12   1.42636e-08 DIIS
   @DF-RHF iter  16: -1908.87559420986986    1.59162e-12   5.22799e-09 DIIS

  ==> Post-Iterations <==

    Orbital Energies [Eh]
    ---------------------

    Doubly Occupied:                                                      

       1A   -104.848802     2A   -104.847303     3A   -104.846896  
       4A    -20.633756     5A    -20.617639     6A    -20.571478  
       7A    -11.402085     8A    -11.337782     9A    -11.336994  
      10A    -11.334114    11A    -11.329195    12A    -11.320622  
      13A    -11.284113    14A    -11.275786    15A    -10.581846  
      16A    -10.580571    17A    -10.580121    18A     -8.051299  
      19A     -8.050016    20A     -8.049567    21A     -8.047825  
      22A     -8.047769    23A     -8.046480    24A     -8.046454  
      25A     -8.046028    26A     -8.046024    27A     -1.497528  
      28A     -1.448172    29A     -1.387854    30A     -1.244678  
      31A     -1.187237    32A     -1.154654    33A     -1.114463  
      34A     -1.055512    35A     -1.021701    36A     -0.980974  
      37A     -0.884176    38A     -0.856476    39A     -0.827029  
      40A     -0.748538    41A     -0.740012    42A     -0.718893  
      43A     -0.718036    44A     -0.678838    45A     -0.656293  
      46A     -0.653453    47A     -0.635576    48A     -0.628080  
      49A     -0.609349    50A     -0.592940    51A     -0.577367  
      52A     -0.561323    53A     -0.560348    54A     -0.529025  
      55A     -0.501254    56A     -0.500950    57A     -0.487860  
      58A     -0.481928    59A     -0.474159    60A     -0.461557  
      61A     -0.460268    62A     -0.456674    63A     -0.367244  
      64A     -0.347153  

    Virtual:                                                              

      65A      0.095726    66A      0.103788    67A      0.146525  
      68A      0.163115    69A      0.204584    70A      0.219106  
      71A      0.235507    72A      0.261279    73A      0.284936  
      74A      0.292532    75A      0.309340    76A      0.313312  
      77A      0.337688    78A      0.385255    79A      0.399634  
      80A      0.421229    81A      0.433665    82A      0.462610  
      83A      0.471360    84A      0.479392    85A      0.516829  
      86A      0.523044    87A      0.536335    88A      0.560972  
      89A      0.585151    90A      0.597709    91A      0.602050  
      92A      0.619276    93A      0.623020    94A      0.635532  
      95A      0.652430    96A      0.660350    97A      0.674453  
      98A      0.684571    99A      0.703755   100A      0.722233  
     101A      0.747205   102A      0.755833   103A      0.762833  
     104A      0.787881   105A      0.792121   106A      0.808461  
     107A      0.813544   108A      0.844235   109A      0.854350  
     110A      0.873071   111A      0.889457   112A      0.919647  
     113A      0.932297   114A      0.947957   115A      0.961305  
     116A      0.977774   117A      0.983600   118A      1.008463  
     119A      1.030982   120A      1.036439   121A      1.054179  
     122A      1.067860   123A      1.074383   124A      1.089517  
     125A      1.113078   126A      1.118409   127A      1.119894  
     128A      1.126334   129A      1.128469   130A      1.134943  
     131A      1.146663   132A      1.160533   133A      1.180131  
     134A      1.187548   135A      1.196158   136A      1.196875  
     137A      1.218618   138A      1.225138   139A      1.245326  
     140A      1.260993   141A      1.283224   142A      1.290290  
     143A      1.294209   144A      1.325059   145A      1.339231  
     146A      1.356687   147A      1.358490   148A      1.401155  
     149A      1.417260   150A      1.427297   151A      1.451880  
     152A      1.454138   153A      1.495687   154A      1.527030  
     155A      1.563979   156A      1.586719   157A      1.609668  
     158A      1.641072   159A      1.668481   160A      1.679162  
     161A      1.683576   162A      1.723633   163A      1.749423  
     164A      1.780441   165A      1.793489   166A      1.799323  
     167A      1.824662   168A      1.844532   169A      1.902836  
     170A      1.917426   171A      2.010329   172A      2.024084  
     173A      2.047487   174A      2.061156   175A      2.091326  
     176A      2.102281   177A      2.149534   178A      2.171641  
     179A      2.184491   180A      2.200775   181A      2.220267  
     182A      2.243616   183A      2.261574   184A      2.328931  
     185A      2.335886   186A      2.363344   187A      2.385503  
     188A      2.398235   189A      2.413780   190A      2.438294  
     191A      2.457511   192A      2.462778   193A      2.537846  
     194A      2.550445   195A      2.583797   196A      2.598860  
     197A      2.632933   198A      2.687312   199A      2.753549  
     200A      2.804605   201A      2.842217   202A      2.880110  
     203A      2.889374   204A      2.970606   205A      3.004644  
     206A      3.023972   207A      3.067127   208A      3.078357  
     209A      3.088713   210A      3.114374   211A      3.188318  
     212A      3.217609   213A      3.237145   214A      3.359775  
     215A      3.426126   216A      3.478174   217A      3.487050  
     218A      3.709447   219A      4.262380   220A      4.420411  
     221A      4.435183   222A      4.473578   223A      4.534409  
     224A      4.604693   225A      4.627475   226A      4.655137  
     227A      4.721200   228A      4.743817   229A      4.796828  
     230A      4.866925   231A      4.925018   232A      5.147564  

    Final Occupation by Irrep:
              A 
    DOCC [    64 ]

  Energy converged.

  @DF-RHF Final Energy: -1908.87559420986986

   => Energetics <=

    Nuclear Repulsion Energy =           1166.9002908326838224
    One-Electron Energy =               -4951.6154912943875388
    Two-Electron Energy =                1875.8396062518338567
    Total Energy =                      -1908.8755942098698597



Properties will be evaluated at   0.000000,   0.000000,   0.000000 [a0]

Properties computed using the SCF density matrix

  Nuclear Dipole Moment: [e a0]
     X:   -11.5810      Y:     5.1384      Z:     5.3176

  Electronic Dipole Moment: [e a0]
     X:    10.6362      Y:    -5.3608      Z:    -5.4832

  Dipole Moment: [e a0]
     X:    -0.9448      Y:    -0.2224      Z:    -0.1656     Total:     0.9847

  Dipole Moment: [D]
     X:    -2.4015      Y:    -0.5653      Z:    -0.4210     Total:     2.5028


*** tstop() called on wr60 at Thu Sep 27 12:49:43 2018
Module time:
	user time   =      91.58 seconds =       1.53 minutes
	system time =       2.57 seconds =       0.04 minutes
	total time  =          7 seconds =       0.12 minutes
Total time:
	user time   =     235.48 seconds =       3.92 minutes
	system time =       7.53 seconds =       0.13 minutes
	total time  =         18 seconds =       0.30 minutes

*** tstart() called on wr60
*** at Thu Sep 27 12:49:43 2018


         ------------------------------------------------------------
                                   SCF GRAD                          
                          Rob Parrish, Justin Turney,                
                       Andy Simmonett, and Alex Sokolov              
         ------------------------------------------------------------

  ==> Geometry <==

    Molecular point group: c1
    Full point group: C1

    Geometry (in Angstrom), charge = 0, multiplicity = 1:

       Center              X                  Y                   Z               Mass       
    ------------   -----------------  -----------------  -----------------  -----------------
         C           -0.265634603341    -1.264077754262     0.170738553470    12.000000000000
         O           -1.181882720062     0.610785605157     1.340049684673    15.994914619560
         C           -0.269666418585     0.086705532669     0.487931254421    12.000000000000
         C            0.706672507879     0.908665901373    -0.043377777856    12.000000000000
         H            0.708276907898     1.948430518892     0.221089421579     1.007825032070
         O           -2.712101096653     3.023696159323     2.144736776633    15.994914619560
         C            1.678364338699     0.402111051959    -0.887893153962    12.000000000000
         C            1.676236791300    -0.948415849557    -1.204813637670    12.000000000000
         C            0.704057423161    -1.775729952958    -0.669580040571    12.000000000000
         H            0.705859830904    -2.820412725778    -0.909427832896     1.007825032070
         C           -2.367336465521     1.109183504960     0.760318981097    12.000000000000
         H           -3.001078440080     0.298832344211     0.430422867192     1.007825032070
         H           -2.138620510754     1.767684047171    -0.067213130511     1.007825032070
         C           -3.044611193995     1.927715829098     1.843616530349    12.000000000000
         O           -4.047080955651     1.279643553667     2.416228998554    15.994914619560
         H           -4.415135881505     1.831784702842     3.100240950220     1.007825032070
         CL           2.863160458380    -1.647065753422    -2.254309008938    34.968852682000
         CL          -1.461828461207    -2.327532786772     0.835002662970    34.968852682000
         CL           2.871157727985     1.486529664334    -1.516630829674    34.968852682000

  Nuclear repulsion = 1166.900290832683822

  ==> Basis Set <==

  Basis Set: 6-31G(D)
    Blend: 6-31G(D)
    Number of shells: 100
    Number of basis function: 232
    Number of Cartesian functions: 232
    Spherical Harmonics?: false
    Max angular momentum: 2

  ==> DFJKGrad: Density-Fitted SCF Gradients <==

    Gradient:                    1
    J tasked:                  Yes
    K tasked:                  Yes
    wK tasked:                  No
    OpenMP threads:             16
    Integrals threads:          16
    Memory (MB):             78678
    Schwarz Cutoff:          0E+00
    Fitting Condition:       1E-12

   => Auxiliary Basis Set <=

  Basis Set: (6-31G(D) AUX)
    Blend: CC-PVDZ-JKFIT
    Number of shells: 417
    Number of basis function: 1406
    Number of Cartesian functions: 1406
    Spherical Harmonics?: false
    Max angular momentum: 3


  -Total Gradient:
     Atom            X                  Y                   Z
    ------   -----------------  -----------------  -----------------
       1       -0.000726987246    -0.000035749657     0.000376413338
       2        0.000015607917    -0.000056549869    -0.000026836419
       3        0.000178075040     0.000088336932    -0.000022990096
       4       -0.000061606379     0.000025727903     0.000043389778
       5        0.000001107564     0.000004292449    -0.000007054328
       6        0.000001389946    -0.000000992908    -0.000001541035
       7        0.000032535517    -0.000062126878    -0.000035770291
       8        0.000070035598     0.000073298675    -0.000040910517
       9        0.000334712128    -0.000145770394    -0.000201949264
      10       -0.000007757198     0.000003794289     0.000000741410
      11       -0.000009994471    -0.000004496774    -0.000006331396
      12        0.000000884867     0.000000336929     0.000001228004
      13        0.000001244911     0.000000202507     0.000001064655
      14       -0.000002047992     0.000001005386     0.000004950206
      15        0.000002192442     0.000000179529    -0.000002122142
      16        0.000000089916    -0.000000122889    -0.000000503332
      17       -0.000004691577     0.000002733951    -0.000002774191
      18        0.000176143031     0.000105658575    -0.000079715880
      19       -0.000000934171     0.000000242325     0.000000711536


*** tstop() called on wr60 at Thu Sep 27 12:49:47 2018
Module time:
	user time   =      56.93 seconds =       0.95 minutes
	system time =       1.33 seconds =       0.02 minutes
	total time  =          4 seconds =       0.07 minutes
Total time:
	user time   =     292.45 seconds =       4.87 minutes
	system time =       8.86 seconds =       0.15 minutes
	total time  =         22 seconds =       0.37 minutes

  //>>>>>>>>>>>>>>>>>>>>>>>>>>>>>>>>>>>//
  //   Loading displacement 2 of 103   //
  //<<<<<<<<<<<<<<<<<<<<<<<<<<<<<<<<<<<//
gradient() will perform analytic gradient computation.

*** tstart() called on wr60
*** at Thu Sep 27 12:49:47 2018

   => Loading Basis Set <=

    Name: 6-31G(D)
    Role: ORBITAL
    Keyword: BASIS
    atoms 1, 3-4, 7-9, 11, 14 entry C          line   111 file /usr/local/hpc1/software_molmod/psi4/psi4conda/share/psi4/basis/6-31g_d_.gbs 
    atoms 2, 6, 15            entry O          line   145 file /usr/local/hpc1/software_molmod/psi4/psi4conda/share/psi4/basis/6-31g_d_.gbs 
    atoms 5, 10, 12-13, 16    entry H          line    44 file /usr/local/hpc1/software_molmod/psi4/psi4conda/share/psi4/basis/6-31g_d_.gbs 
    atoms 17-19               entry CL         line   340 file /usr/local/hpc1/software_molmod/psi4/psi4conda/share/psi4/basis/6-31g_d_.gbs 


         ---------------------------------------------------------
                                   SCF
            by Justin Turney, Rob Parrish, Andy Simmonett
                             and Daniel Smith
                              RHF Reference
                       16 Threads, 104904 MiB Core
         ---------------------------------------------------------

  ==> Geometry <==

    Molecular point group: c1
    Full point group: C1

    Geometry (in Angstrom), charge = 0, multiplicity = 1:

       Center              X                  Y                   Z               Mass       
    ------------   -----------------  -----------------  -----------------  -----------------
         C           -0.264155170013    -1.264075270906     0.170720684718    12.000000000000
         O           -1.181953846188     0.610789181975     1.340051065815    15.994914619560
         C           -0.269742122717     0.086703985477     0.487930886139    12.000000000000
         C            0.706614325209     0.908653929793    -0.043362074910    12.000000000000
         H            0.708235704013     1.948415087014     0.221118624925     1.007825032070
         O           -2.712133878335     3.023716437182     2.144760994129    15.994914619560
         C            1.678301846773     0.402092802743    -0.887878643738    12.000000000000
         C            1.676152098782    -0.948429948515    -1.204816663058    12.000000000000
         C            0.703955092487    -1.775733752230    -0.669599183625    12.000000000000
         H            0.705740297888    -2.820413444630    -0.909460521306     1.007825032070
         C           -2.367395540989     1.109215631372     0.760320265709    12.000000000000
         H           -3.001150062654     0.298879992614     0.430410128180     1.007825032070
         H           -2.138663323862     1.767722854113    -0.067202035045     1.007825032070
         C           -3.044661748600     1.927745912424     1.843624685867    12.000000000000
         O           -4.047146176018     1.279683988913     2.416223194458    15.994914619560
         H           -4.415195095412     1.831822791086     3.100240272570     1.007825032070
         CL           2.863069184199    -1.647087288012    -2.254314527882    34.968852682000
         CL          -1.461948910155    -2.327517690376     0.834964367792    34.968852682000
         CL           2.871117952379     1.486498415406    -1.516595644208    34.968852682000

  Running in c1 symmetry.

  Rotational constants: A =      0.02660  B =      0.00842  C =      0.00649 [cm^-1]
  Rotational constants: A =    797.59600  B =    252.54656  C =    194.68158 [MHz]
  Nuclear repulsion = 1166.900637633351607

  Charge       = 0
  Multiplicity = 1
  Electrons    = 128
  Nalpha       = 64
  Nbeta        = 64

  ==> Algorithm <==

  SCF Algorithm Type is DF.
  DIIS enabled.
  MOM disabled.
  Fractional occupation disabled.
  Guess Type is SAD.
  Energy threshold   = 1.00e-08
  Density threshold  = 1.00e-08
  Integral threshold = 0.00e+00

  ==> Primary Basis <==

  Basis Set: 6-31G(D)
    Blend: 6-31G(D)
    Number of shells: 100
    Number of basis function: 232
    Number of Cartesian functions: 232
    Spherical Harmonics?: false
    Max angular momentum: 2

   => Loading Basis Set <=

    Name: (6-31G(D) AUX)
    Role: JKFIT
    Keyword: DF_BASIS_SCF
    atoms 1, 3-4, 7-9, 11, 14 entry C          line   121 file /usr/local/hpc1/software_molmod/psi4/psi4conda/share/psi4/basis/cc-pvdz-jkfit.gbs 
    atoms 2, 6, 15            entry O          line   221 file /usr/local/hpc1/software_molmod/psi4/psi4conda/share/psi4/basis/cc-pvdz-jkfit.gbs 
    atoms 5, 10, 12-13, 16    entry H          line    51 file /usr/local/hpc1/software_molmod/psi4/psi4conda/share/psi4/basis/cc-pvdz-jkfit.gbs 
    atoms 17-19               entry CL         line   667 file /usr/local/hpc1/software_molmod/psi4/psi4conda/share/psi4/basis/cc-pvdz-jkfit.gbs 

  ==> Pre-Iterations <==

   -------------------------------------------------------
    Irrep   Nso     Nmo     Nalpha   Nbeta   Ndocc  Nsocc
   -------------------------------------------------------
     A        232     232       0       0       0       0
   -------------------------------------------------------
    Total     232     232      64      64      64       0
   -------------------------------------------------------

  ==> Integral Setup <==

  ==> DiskDFJK: Density-Fitted J/K Matrices <==

    J tasked:                  Yes
    K tasked:                  Yes
    wK tasked:                  No
    OpenMP threads:             16
    Integrals threads:          16
    Memory (MB):             78678
    Algorithm:                Core
    Integral Cache:           NONE
    Schwarz Cutoff:          1E-12
    Fitting Condition:       1E-12

   => Auxiliary Basis Set <=

  Basis Set: (6-31G(D) AUX)
    Blend: CC-PVDZ-JKFIT
    Number of shells: 417
    Number of basis function: 1406
    Number of Cartesian functions: 1406
    Spherical Harmonics?: false
    Max angular momentum: 3

  Minimum eigenvalue in the overlap matrix is 3.6939088850E-04.
  Using Symmetric Orthogonalization.

  SCF Guess: Superposition of Atomic Densities via on-the-fly atomic UHF.

  ==> Iterations <==

                           Total Energy        Delta E     RMS |[F,P]|

   @DF-RHF iter   0: -1914.59154703188779   -1.91459e+03   1.15029e-01 
   @DF-RHF iter   1: -1908.49415343857368    6.09739e+00   1.25398e-02 
   @DF-RHF iter   2: -1908.79601436854045   -3.01861e-01   6.16154e-03 DIIS
   @DF-RHF iter   3: -1908.85974942447524   -6.37351e-02   2.05266e-03 DIIS
   @DF-RHF iter   4: -1908.87384458183624   -1.40952e-02   6.29604e-04 DIIS
   @DF-RHF iter   5: -1908.87527183634711   -1.42725e-03   2.70450e-04 DIIS
   @DF-RHF iter   6: -1908.87553913514103   -2.67299e-04   9.97052e-05 DIIS
   @DF-RHF iter   7: -1908.87558641573150   -4.72806e-05   3.17472e-05 DIIS
   @DF-RHF iter   8: -1908.87559231766545   -5.90193e-06   1.57964e-05 DIIS
   @DF-RHF iter   9: -1908.87559376042782   -1.44276e-06   7.62931e-06 DIIS
   @DF-RHF iter  10: -1908.87559415029523   -3.89867e-07   2.62141e-06 DIIS
   @DF-RHF iter  11: -1908.87559419629451   -4.59993e-08   9.18309e-07 DIIS
   @DF-RHF iter  12: -1908.87559420033722   -4.04270e-09   3.80187e-07 DIIS
   @DF-RHF iter  13: -1908.87559420083062   -4.93401e-10   9.79180e-08 DIIS
   @DF-RHF iter  14: -1908.87559420091407   -8.34461e-11   4.14742e-08 DIIS
   @DF-RHF iter  15: -1908.87559420092430   -1.02318e-11   1.60881e-08 DIIS
   @DF-RHF iter  16: -1908.87559420092521   -9.09495e-13   8.35481e-09 DIIS

  ==> Post-Iterations <==

    Orbital Energies [Eh]
    ---------------------

    Doubly Occupied:                                                      

       1A   -104.848684     2A   -104.847321     3A   -104.846919  
       4A    -20.633762     5A    -20.617703     6A    -20.571490  
       7A    -11.402097     8A    -11.337828     9A    -11.337010  
      10A    -11.334146    11A    -11.329190    12A    -11.320640  
      13A    -11.284048    14A    -11.275808    15A    -10.581714  
      16A    -10.580588    17A    -10.580143    18A     -8.051164  
      19A     -8.050033    20A     -8.049590    21A     -8.047694  
      22A     -8.047637    23A     -8.046496    24A     -8.046471  
      25A     -8.046050    26A     -8.046047    27A     -1.497537  
      28A     -1.448203    29A     -1.387864    30A     -1.244756  
      31A     -1.187089    32A     -1.154679    33A     -1.114405  
      34A     -1.055612    35A     -1.021779    36A     -0.981004  
      37A     -0.884213    38A     -0.856490    39A     -0.827103  
      40A     -0.748570    41A     -0.740102    42A     -0.718903  
      43A     -0.718073    44A     -0.678821    45A     -0.656334  
      46A     -0.653502    47A     -0.635624    48A     -0.628121  
      49A     -0.609230    50A     -0.592991    51A     -0.577388  
      52A     -0.561313    53A     -0.560262    54A     -0.528924  
      55A     -0.501262    56A     -0.500958    57A     -0.487868  
      58A     -0.481922    59A     -0.474120    60A     -0.461589  
      61A     -0.460286    62A     -0.456695    63A     -0.367363  
      64A     -0.347202  

    Virtual:                                                              

      65A      0.095838    66A      0.103702    67A      0.146413  
      68A      0.163097    69A      0.204390    70A      0.219101  
      71A      0.235494    72A      0.261275    73A      0.284924  
      74A      0.292524    75A      0.309344    76A      0.313388  
      77A      0.337675    78A      0.385278    79A      0.399636  
      80A      0.421193    81A      0.433925    82A      0.462639  
      83A      0.471381    84A      0.479406    85A      0.516837  
      86A      0.523014    87A      0.536383    88A      0.561065  
      89A      0.585186    90A      0.597693    91A      0.602053  
      92A      0.619326    93A      0.622927    94A      0.635614  
      95A      0.652422    96A      0.660341    97A      0.674525  
      98A      0.684592    99A      0.703595   100A      0.722169  
     101A      0.747205   102A      0.755833   103A      0.762792  
     104A      0.787895   105A      0.792127   106A      0.808491  
     107A      0.813533   108A      0.844267   109A      0.854341  
     110A      0.873019   111A      0.889433   112A      0.919668  
     113A      0.932296   114A      0.947927   115A      0.961333  
     116A      0.977744   117A      0.983586   118A      1.008496  
     119A      1.031012   120A      1.036412   121A      1.054244  
     122A      1.067802   123A      1.074351   124A      1.089523  
     125A      1.113159   126A      1.118342   127A      1.119941  
     128A      1.126414   129A      1.128480   130A      1.134946  
     131A      1.146709   132A      1.160686   133A      1.180131  
     134A      1.187529   135A      1.196156   136A      1.196950  
     137A      1.218558   138A      1.225127   139A      1.245401  
     140A      1.261044   141A      1.283120   142A      1.290237  
     143A      1.294187   144A      1.324953   145A      1.339221  
     146A      1.356676   147A      1.358420   148A      1.401005  
     149A      1.417203   150A      1.427317   151A      1.452061  
     152A      1.454137   153A      1.495756   154A      1.526949  
     155A      1.563946   156A      1.586772   157A      1.609570  
     158A      1.641108   159A      1.668436   160A      1.679407  
     161A      1.683636   162A      1.723531   163A      1.749386  
     164A      1.780363   165A      1.793448   166A      1.799311  
     167A      1.824607   168A      1.844624   169A      1.902864  
     170A      1.917409   171A      2.010445   172A      2.024231  
     173A      2.047530   174A      2.061220   175A      2.091397  
     176A      2.102363   177A      2.149494   178A      2.171532  
     179A      2.184387   180A      2.200615   181A      2.220168  
     182A      2.243547   183A      2.261732   184A      2.328938  
     185A      2.335775   186A      2.363355   187A      2.385805  
     188A      2.398352   189A      2.413914   190A      2.438316  
     191A      2.457768   192A      2.462827   193A      2.537849  
     194A      2.550513   195A      2.584385   196A      2.598758  
     197A      2.633017   198A      2.687277   199A      2.753474  
     200A      2.804514   201A      2.842157   202A      2.880169  
     203A      2.889634   204A      2.970982   205A      3.004564  
     206A      3.023946   207A      3.067565   208A      3.078941  
     209A      3.088959   210A      3.114521   211A      3.188181  
     212A      3.217598   213A      3.237156   214A      3.359755  
     215A      3.426049   216A      3.478281   217A      3.487124  
     218A      3.709840   219A      4.262410   220A      4.420455  
     221A      4.435306   222A      4.473849   223A      4.534414  
     224A      4.604691   225A      4.627617   226A      4.655184  
     227A      4.721249   228A      4.743830   229A      4.796649  
     230A      4.866958   231A      4.925024   232A      5.147856  

    Final Occupation by Irrep:
              A 
    DOCC [    64 ]

  Energy converged.

  @DF-RHF Final Energy: -1908.87559420092521

   => Energetics <=

    Nuclear Repulsion Energy =           1166.9006376333516073
    One-Electron Energy =               -4951.6156053357772180
    Two-Electron Energy =                1875.8393735015001766
    Total Energy =                      -1908.8755942009252067



Properties will be evaluated at   0.000000,   0.000000,   0.000000 [a0]

Properties computed using the SCF density matrix

  Nuclear Dipole Moment: [e a0]
     X:   -11.5811      Y:     5.1385      Z:     5.3176

  Electronic Dipole Moment: [e a0]
     X:    10.6375      Y:    -5.3595      Z:    -5.4841

  Dipole Moment: [e a0]
     X:    -0.9436      Y:    -0.2210      Z:    -0.1665     Total:     0.9833

  Dipole Moment: [D]
     X:    -2.3983      Y:    -0.5617      Z:    -0.4233     Total:     2.4993


*** tstop() called on wr60 at Thu Sep 27 12:49:54 2018
Module time:
	user time   =      87.90 seconds =       1.47 minutes
	system time =       2.32 seconds =       0.04 minutes
	total time  =          7 seconds =       0.12 minutes
Total time:
	user time   =     380.56 seconds =       6.34 minutes
	system time =      11.19 seconds =       0.19 minutes
	total time  =         29 seconds =       0.48 minutes

*** tstart() called on wr60
*** at Thu Sep 27 12:49:54 2018


         ------------------------------------------------------------
                                   SCF GRAD                          
                          Rob Parrish, Justin Turney,                
                       Andy Simmonett, and Alex Sokolov              
         ------------------------------------------------------------

  ==> Geometry <==

    Molecular point group: c1
    Full point group: C1

    Geometry (in Angstrom), charge = 0, multiplicity = 1:

       Center              X                  Y                   Z               Mass       
    ------------   -----------------  -----------------  -----------------  -----------------
         C           -0.264155170013    -1.264075270906     0.170720684718    12.000000000000
         O           -1.181953846188     0.610789181975     1.340051065815    15.994914619560
         C           -0.269742122717     0.086703985477     0.487930886139    12.000000000000
         C            0.706614325209     0.908653929793    -0.043362074910    12.000000000000
         H            0.708235704013     1.948415087014     0.221118624925     1.007825032070
         O           -2.712133878335     3.023716437182     2.144760994129    15.994914619560
         C            1.678301846773     0.402092802743    -0.887878643738    12.000000000000
         C            1.676152098782    -0.948429948515    -1.204816663058    12.000000000000
         C            0.703955092487    -1.775733752230    -0.669599183625    12.000000000000
         H            0.705740297888    -2.820413444630    -0.909460521306     1.007825032070
         C           -2.367395540989     1.109215631372     0.760320265709    12.000000000000
         H           -3.001150062654     0.298879992614     0.430410128180     1.007825032070
         H           -2.138663323862     1.767722854113    -0.067202035045     1.007825032070
         C           -3.044661748600     1.927745912424     1.843624685867    12.000000000000
         O           -4.047146176018     1.279683988913     2.416223194458    15.994914619560
         H           -4.415195095412     1.831822791086     3.100240272570     1.007825032070
         CL           2.863069184199    -1.647087288012    -2.254314527882    34.968852682000
         CL          -1.461948910155    -2.327517690376     0.834964367792    34.968852682000
         CL           2.871117952379     1.486498415406    -1.516595644208    34.968852682000

  Nuclear repulsion = 1166.900637633351607

  ==> Basis Set <==

  Basis Set: 6-31G(D)
    Blend: 6-31G(D)
    Number of shells: 100
    Number of basis function: 232
    Number of Cartesian functions: 232
    Spherical Harmonics?: false
    Max angular momentum: 2

  ==> DFJKGrad: Density-Fitted SCF Gradients <==

    Gradient:                    1
    J tasked:                  Yes
    K tasked:                  Yes
    wK tasked:                  No
    OpenMP threads:             16
    Integrals threads:          16
    Memory (MB):             78678
    Schwarz Cutoff:          0E+00
    Fitting Condition:       1E-12

   => Auxiliary Basis Set <=

  Basis Set: (6-31G(D) AUX)
    Blend: CC-PVDZ-JKFIT
    Number of shells: 417
    Number of basis function: 1406
    Number of Cartesian functions: 1406
    Spherical Harmonics?: false
    Max angular momentum: 3


  -Total Gradient:
     Atom            X                  Y                   Z
    ------   -----------------  -----------------  -----------------
       1        0.000729251849     0.000034327351    -0.000377736243
       2       -0.000015571583     0.000057063553     0.000027031765
       3       -0.000180377112    -0.000088224893     0.000025050745
       4        0.000063537772    -0.000024574448    -0.000045902936
       5       -0.000001127693    -0.000004440943     0.000006673182
       6       -0.000000002393    -0.000000438640     0.000000428414
       7       -0.000030739975     0.000062107596     0.000037680438
       8       -0.000069100047    -0.000073674097     0.000042457890
       9       -0.000337794065     0.000146157017     0.000203128006
      10        0.000008035130    -0.000003863390    -0.000001209300
      11        0.000009240799     0.000003488457     0.000006208028
      12       -0.000001719048    -0.000000887895    -0.000001371173
      13       -0.000000725893     0.000000187329    -0.000000908647
      14       -0.000000134688     0.000001726228    -0.000002295934
      15       -0.000000949538    -0.000001444494     0.000001242341
      16        0.000000264088     0.000000062366    -0.000000456132
      17        0.000003847109    -0.000002420653     0.000002220358
      18       -0.000176070109    -0.000105122105     0.000079167186
      19        0.000000135402    -0.000000028422    -0.000001407863


*** tstop() called on wr60 at Thu Sep 27 12:49:58 2018
Module time:
	user time   =      57.45 seconds =       0.96 minutes
	system time =       1.16 seconds =       0.02 minutes
	total time  =          4 seconds =       0.07 minutes
Total time:
	user time   =     438.04 seconds =       7.30 minutes
	system time =      12.35 seconds =       0.21 minutes
	total time  =         33 seconds =       0.55 minutes

  //>>>>>>>>>>>>>>>>>>>>>>>>>>>>>>>>>>>//
  //   Loading displacement 3 of 103   //
  //<<<<<<<<<<<<<<<<<<<<<<<<<<<<<<<<<<<//
gradient() will perform analytic gradient computation.

*** tstart() called on wr60
*** at Thu Sep 27 12:49:58 2018

   => Loading Basis Set <=

    Name: 6-31G(D)
    Role: ORBITAL
    Keyword: BASIS
    atoms 1, 3-4, 7-9, 11, 14 entry C          line   111 file /usr/local/hpc1/software_molmod/psi4/psi4conda/share/psi4/basis/6-31g_d_.gbs 
    atoms 2, 6, 15            entry O          line   145 file /usr/local/hpc1/software_molmod/psi4/psi4conda/share/psi4/basis/6-31g_d_.gbs 
    atoms 5, 10, 12-13, 16    entry H          line    44 file /usr/local/hpc1/software_molmod/psi4/psi4conda/share/psi4/basis/6-31g_d_.gbs 
    atoms 17-19               entry CL         line   340 file /usr/local/hpc1/software_molmod/psi4/psi4conda/share/psi4/basis/6-31g_d_.gbs 


         ---------------------------------------------------------
                                   SCF
            by Justin Turney, Rob Parrish, Andy Simmonett
                             and Daniel Smith
                              RHF Reference
                       16 Threads, 104904 MiB Core
         ---------------------------------------------------------

  ==> Geometry <==

    Molecular point group: c1
    Full point group: C1

    Geometry (in Angstrom), charge = 0, multiplicity = 1:

       Center              X                  Y                   Z               Mass       
    ------------   -----------------  -----------------  -----------------  -----------------
         C           -0.264894886677    -1.264821866982     0.170730360521    12.000000000000
         O           -1.181917800421     0.610826343391     1.340049961709    15.994914619560
         C           -0.269704267967     0.086742303444     0.487931007275    12.000000000000
         C            0.706644250906     0.908696182366    -0.043370437558    12.000000000000
         H            0.708258152851     1.948459225610     0.221102893090     1.007825032070
         O           -2.712114663118     3.023747233735     2.144746970657    15.994914619560
         C            1.678333464011     0.402136734649    -0.887886067419    12.000000000000
         C            1.676193500035    -0.948388278326    -1.204814514946    12.000000000000
         C            0.704004475703    -1.775695956054    -0.669588525148    12.000000000000
         H            0.705797263859    -2.820377333235    -0.909442468092     1.007825032070
         C           -2.367365005372     1.109239339961     0.760318863090    12.000000000000
         H           -3.001114037383     0.298896367745     0.430416193089     1.007825032070
         H           -2.138640236170     1.767742504553    -0.067208725498     1.007825032070
         C           -3.044634713253     1.927771954338     1.843619331873    12.000000000000
         O           -4.047112470011     1.279706182772     2.416225163807    15.994914619560
         H           -4.415163877896     1.831846928061     3.100239334429     1.007825032070
         CL           2.863113232720    -1.647043693437    -2.254310666932    34.968852682000
         CL          -1.461891074571    -2.327486313812     0.834984839446    34.968852682000
         CL           2.871139305648     1.486547298462    -1.516614000805    34.968852682000

  Running in c1 symmetry.

  Rotational constants: A =      0.02660  B =      0.00842  C =      0.00649 [cm^-1]
  Rotational constants: A =    797.55958  B =    252.54671  C =    194.67934 [MHz]
  Nuclear repulsion = 1166.894179621401690

  Charge       = 0
  Multiplicity = 1
  Electrons    = 128
  Nalpha       = 64
  Nbeta        = 64

  ==> Algorithm <==

  SCF Algorithm Type is DF.
  DIIS enabled.
  MOM disabled.
  Fractional occupation disabled.
  Guess Type is SAD.
  Energy threshold   = 1.00e-08
  Density threshold  = 1.00e-08
  Integral threshold = 0.00e+00

  ==> Primary Basis <==

  Basis Set: 6-31G(D)
    Blend: 6-31G(D)
    Number of shells: 100
    Number of basis function: 232
    Number of Cartesian functions: 232
    Spherical Harmonics?: false
    Max angular momentum: 2

   => Loading Basis Set <=

    Name: (6-31G(D) AUX)
    Role: JKFIT
    Keyword: DF_BASIS_SCF
    atoms 1, 3-4, 7-9, 11, 14 entry C          line   121 file /usr/local/hpc1/software_molmod/psi4/psi4conda/share/psi4/basis/cc-pvdz-jkfit.gbs 
    atoms 2, 6, 15            entry O          line   221 file /usr/local/hpc1/software_molmod/psi4/psi4conda/share/psi4/basis/cc-pvdz-jkfit.gbs 
    atoms 5, 10, 12-13, 16    entry H          line    51 file /usr/local/hpc1/software_molmod/psi4/psi4conda/share/psi4/basis/cc-pvdz-jkfit.gbs 
    atoms 17-19               entry CL         line   667 file /usr/local/hpc1/software_molmod/psi4/psi4conda/share/psi4/basis/cc-pvdz-jkfit.gbs 

  ==> Pre-Iterations <==

   -------------------------------------------------------
    Irrep   Nso     Nmo     Nalpha   Nbeta   Ndocc  Nsocc
   -------------------------------------------------------
     A        232     232       0       0       0       0
   -------------------------------------------------------
    Total     232     232      64      64      64       0
   -------------------------------------------------------

  ==> Integral Setup <==

  ==> DiskDFJK: Density-Fitted J/K Matrices <==

    J tasked:                  Yes
    K tasked:                  Yes
    wK tasked:                  No
    OpenMP threads:             16
    Integrals threads:          16
    Memory (MB):             78678
    Algorithm:                Core
    Integral Cache:           NONE
    Schwarz Cutoff:          1E-12
    Fitting Condition:       1E-12

   => Auxiliary Basis Set <=

  Basis Set: (6-31G(D) AUX)
    Blend: CC-PVDZ-JKFIT
    Number of shells: 417
    Number of basis function: 1406
    Number of Cartesian functions: 1406
    Spherical Harmonics?: false
    Max angular momentum: 3

  Minimum eigenvalue in the overlap matrix is 3.6993648814E-04.
  Using Symmetric Orthogonalization.

  SCF Guess: Superposition of Atomic Densities via on-the-fly atomic UHF.

  ==> Iterations <==

                           Total Energy        Delta E     RMS |[F,P]|

   @DF-RHF iter   0: -1915.74578126787083   -1.91575e+03   1.17670e-01 
   @DF-RHF iter   1: -1908.48059013019497    7.26519e+00   1.30763e-02 
   @DF-RHF iter   2: -1908.77142239131535   -2.90832e-01   7.70006e-03 DIIS
   @DF-RHF iter   3: -1908.85829703538366   -8.68746e-02   2.00707e-03 DIIS
   @DF-RHF iter   4: -1908.87336724814418   -1.50702e-02   7.73527e-04 DIIS
   @DF-RHF iter   5: -1908.87519658558244   -1.82934e-03   2.91764e-04 DIIS
   @DF-RHF iter   6: -1908.87554479097730   -3.48205e-04   1.07152e-04 DIIS
   @DF-RHF iter   7: -1908.87558767198243   -4.28810e-05   3.16691e-05 DIIS
   @DF-RHF iter   8: -1908.87559266035464   -4.98837e-06   1.45015e-05 DIIS
   @DF-RHF iter   9: -1908.87559372467149   -1.06432e-06   6.47441e-06 DIIS
   @DF-RHF iter  10: -1908.87559397717814   -2.52507e-07   2.42019e-06 DIIS
   @DF-RHF iter  11: -1908.87559401281351   -3.56354e-08   9.57504e-07 DIIS
   @DF-RHF iter  12: -1908.87559401822637   -5.41286e-09   4.35799e-07 DIIS
   @DF-RHF iter  13: -1908.87559401920316   -9.76797e-10   1.56779e-07 DIIS
   @DF-RHF iter  14: -1908.87559401939279   -1.89630e-10   5.11062e-08 DIIS
   @DF-RHF iter  15: -1908.87559401940575   -1.29603e-11   1.76317e-08 DIIS
   @DF-RHF iter  16: -1908.87559401940598   -2.27374e-13   7.45906e-09 DIIS

  ==> Post-Iterations <==

    Orbital Energies [Eh]
    ---------------------

    Doubly Occupied:                                                      

       1A   -104.848791     2A   -104.847302     3A   -104.846897  
       4A    -20.633761     5A    -20.617675     6A    -20.571485  
       7A    -11.402091     8A    -11.337864     9A    -11.336988  
      10A    -11.334108    11A    -11.329204    12A    -11.320631  
      13A    -11.284026    14A    -11.275771    15A    -10.581834  
      16A    -10.580569    17A    -10.580121    18A     -8.051288  
      19A     -8.050014    20A     -8.049567    21A     -8.047814  
      22A     -8.047758    23A     -8.046478    24A     -8.046452  
      25A     -8.046028    26A     -8.046024    27A     -1.497534  
      28A     -1.448177    29A     -1.387860    30A     -1.244692  
      31A     -1.187230    32A     -1.154650    33A     -1.114441  
      34A     -1.055560    35A     -1.021756    36A     -0.980903  
      37A     -0.884100    38A     -0.856475    39A     -0.827094  
      40A     -0.748531    41A     -0.740055    42A     -0.718897  
      43A     -0.718036    44A     -0.678837    45A     -0.656295  
      46A     -0.653451    47A     -0.635590    48A     -0.628086  
      49A     -0.609356    50A     -0.592957    51A     -0.577361  
      52A     -0.561288    53A     -0.560374    54A     -0.529029  
      55A     -0.501247    56A     -0.500942    57A     -0.487843  
      58A     -0.481933    59A     -0.474161    60A     -0.461562  
      61A     -0.460273    62A     -0.456671    63A     -0.367329  
      64A     -0.347080  

    Virtual:                                                              

      65A      0.095839    66A      0.103693    67A      0.146511  
      68A      0.163110    69A      0.204573    70A      0.219102  
      71A      0.235521    72A      0.261277    73A      0.284937  
      74A      0.292530    75A      0.309360    76A      0.313326  
      77A      0.337677    78A      0.385296    79A      0.399636  
      80A      0.421175    81A      0.433763    82A      0.462617  
      83A      0.471348    84A      0.479375    85A      0.516827  
      86A      0.522998    87A      0.536326    88A      0.560950  
      89A      0.585144    90A      0.597711    91A      0.602058  
      92A      0.619279    93A      0.622951    94A      0.635536  
      95A      0.652433    96A      0.660391    97A      0.674471  
      98A      0.684612    99A      0.703691   100A      0.722215  
     101A      0.747204   102A      0.755838   103A      0.762807  
     104A      0.787899   105A      0.792142   106A      0.808505  
     107A      0.813582   108A      0.844249   109A      0.854388  
     110A      0.873040   111A      0.889344   112A      0.919675  
     113A      0.932294   114A      0.947962   115A      0.961314  
     116A      0.977764   117A      0.983586   118A      1.008485  
     119A      1.031004   120A      1.036427   121A      1.054252  
     122A      1.067833   123A      1.074362   124A      1.089538  
     125A      1.113095   126A      1.118374   127A      1.119902  
     128A      1.126339   129A      1.128475   130A      1.134943  
     131A      1.146677   132A      1.160561   133A      1.180113  
     134A      1.187548   135A      1.196162   136A      1.196884  
     137A      1.218615   138A      1.225132   139A      1.245382  
     140A      1.261070   141A      1.283124   142A      1.290281  
     143A      1.294200   144A      1.325058   145A      1.339228  
     146A      1.356645   147A      1.358448   148A      1.401078  
     149A      1.417252   150A      1.427356   151A      1.451959  
     152A      1.454144   153A      1.495705   154A      1.527043  
     155A      1.563971   156A      1.586753   157A      1.609614  
     158A      1.641083   159A      1.668474   160A      1.679328  
     161A      1.683714   162A      1.723547   163A      1.749394  
     164A      1.780397   165A      1.793449   166A      1.799309  
     167A      1.824654   168A      1.844552   169A      1.902846  
     170A      1.917426   171A      2.010351   172A      2.024168  
     173A      2.047268   174A      2.061162   175A      2.091337  
     176A      2.102294   177A      2.149494   178A      2.171658  
     179A      2.184458   180A      2.200734   181A      2.220275  
     182A      2.243590   183A      2.261609   184A      2.328900  
     185A      2.335783   186A      2.363232   187A      2.385744  
     188A      2.398358   189A      2.413863   190A      2.438214  
     191A      2.457555   192A      2.462775   193A      2.537871  
     194A      2.550367   195A      2.584064   196A      2.598932  
     197A      2.632931   198A      2.687300   199A      2.753474  
     200A      2.804498   201A      2.842108   202A      2.880112  
     203A      2.889533   204A      2.970620   205A      3.004461  
     206A      3.023920   207A      3.067442   208A      3.078510  
     209A      3.088724   210A      3.114460   211A      3.188303  
     212A      3.217596   213A      3.237108   214A      3.359755  
     215A      3.426097   216A      3.478170   217A      3.486867  
     218A      3.709428   219A      4.262370   220A      4.420417  
     221A      4.435196   222A      4.473777   223A      4.534359  
     224A      4.604670   225A      4.627507   226A      4.655183  
     227A      4.721230   228A      4.743832   229A      4.796734  
     230A      4.866862   231A      4.924969   232A      5.147504  

    Final Occupation by Irrep:
              A 
    DOCC [    64 ]

  Energy converged.

  @DF-RHF Final Energy: -1908.87559401940598

   => Energetics <=

    Nuclear Repulsion Energy =           1166.8941796214016904
    One-Electron Energy =               -4951.6031583229914759
    Two-Electron Energy =                1875.8333846821838051
    Total Energy =                      -1908.8755940194059804



Properties will be evaluated at   0.000000,   0.000000,   0.000000 [a0]

Properties computed using the SCF density matrix

  Nuclear Dipole Moment: [e a0]
     X:   -11.5810      Y:     5.1385      Z:     5.3176

  Electronic Dipole Moment: [e a0]
     X:    10.6360      Y:    -5.3607      Z:    -5.4832

  Dipole Moment: [e a0]
     X:    -0.9450      Y:    -0.2222      Z:    -0.1656     Total:     0.9848

  Dipole Moment: [D]
     X:    -2.4020      Y:    -0.5649      Z:    -0.4209     Total:     2.5032


*** tstop() called on wr60 at Thu Sep 27 12:50:05 2018
Module time:
	user time   =      96.50 seconds =       1.61 minutes
	system time =       2.51 seconds =       0.04 minutes
	total time  =          7 seconds =       0.12 minutes
Total time:
	user time   =     534.70 seconds =       8.91 minutes
	system time =      14.87 seconds =       0.25 minutes
	total time  =         40 seconds =       0.67 minutes

*** tstart() called on wr60
*** at Thu Sep 27 12:50:05 2018


         ------------------------------------------------------------
                                   SCF GRAD                          
                          Rob Parrish, Justin Turney,                
                       Andy Simmonett, and Alex Sokolov              
         ------------------------------------------------------------

  ==> Geometry <==

    Molecular point group: c1
    Full point group: C1

    Geometry (in Angstrom), charge = 0, multiplicity = 1:

       Center              X                  Y                   Z               Mass       
    ------------   -----------------  -----------------  -----------------  -----------------
         C           -0.264894886677    -1.264821866982     0.170730360521    12.000000000000
         O           -1.181917800421     0.610826343391     1.340049961709    15.994914619560
         C           -0.269704267967     0.086742303444     0.487931007275    12.000000000000
         C            0.706644250906     0.908696182366    -0.043370437558    12.000000000000
         H            0.708258152851     1.948459225610     0.221102893090     1.007825032070
         O           -2.712114663118     3.023747233735     2.144746970657    15.994914619560
         C            1.678333464011     0.402136734649    -0.887886067419    12.000000000000
         C            1.676193500035    -0.948388278326    -1.204814514946    12.000000000000
         C            0.704004475703    -1.775695956054    -0.669588525148    12.000000000000
         H            0.705797263859    -2.820377333235    -0.909442468092     1.007825032070
         C           -2.367365005372     1.109239339961     0.760318863090    12.000000000000
         H           -3.001114037383     0.298896367745     0.430416193089     1.007825032070
         H           -2.138640236170     1.767742504553    -0.067208725498     1.007825032070
         C           -3.044634713253     1.927771954338     1.843619331873    12.000000000000
         O           -4.047112470011     1.279706182772     2.416225163807    15.994914619560
         H           -4.415163877896     1.831846928061     3.100239334429     1.007825032070
         CL           2.863113232720    -1.647043693437    -2.254310666932    34.968852682000
         CL          -1.461891074571    -2.327486313812     0.834984839446    34.968852682000
         CL           2.871139305648     1.486547298462    -1.516614000805    34.968852682000

  Nuclear repulsion = 1166.894179621401690

  ==> Basis Set <==

  Basis Set: 6-31G(D)
    Blend: 6-31G(D)
    Number of shells: 100
    Number of basis function: 232
    Number of Cartesian functions: 232
    Spherical Harmonics?: false
    Max angular momentum: 2

  ==> DFJKGrad: Density-Fitted SCF Gradients <==

    Gradient:                    1
    J tasked:                  Yes
    K tasked:                  Yes
    wK tasked:                  No
    OpenMP threads:             16
    Integrals threads:          16
    Memory (MB):             78678
[...]
     12   H                0.35 -0.10  0.03   -0.07  0.03  0.03   -0.05 -0.01  0.03   
     13   H                0.37 -0.13  0.25   -0.03 -0.01 -0.06   -0.15  0.07 -0.07   
     14   C               -0.04  0.04 -0.08    0.01 -0.01  0.01   -0.01 -0.01  0.02   
     15   O               -0.02 -0.02  0.03   -0.00  0.00 -0.00    0.02  0.01 -0.01   
     16   H                0.02 -0.03  0.05    0.00  0.01 -0.01   -0.02 -0.01 -0.01   
     17   CL               0.01 -0.01 -0.01   -0.00  0.00  0.00    0.02 -0.01 -0.01   
     18   CL              -0.01 -0.01  0.00   -0.01 -0.01  0.00   -0.04 -0.04  0.02   
     19   CL              -0.02 -0.02  0.01   -0.00 -0.00  0.00   -0.00 -0.01  0.00   

  Vibration                       40                  41                  42          
  Freq [cm^-1]                1258.8041           1331.8683           1375.4059       
  Irrep                           A                   A                   A           
  Reduced mass [u]              2.3375              1.7087              1.2935        
  Force const [mDyne/A]         2.1823              1.7858              1.4417        
  Turning point v=0 [a0]        0.2023              0.2300              0.2601        
  RMS dev v=0 [a0 u^1/2]        0.2187              0.2126              0.2092        
  Char temp [K]               1811.1360           1916.2591           1978.8999       
  ----------------------------------------------------------------------------------
      1   C                0.05 -0.03 -0.04   -0.02 -0.01  0.01    0.01 -0.04 -0.01   
      2   O                0.03 -0.02 -0.01   -0.02 -0.04 -0.00    0.03 -0.00 -0.01   
      3   C                0.01  0.09  0.01   -0.03  0.01  0.02   -0.05 -0.04  0.03   
      4   C               -0.02 -0.09 -0.01   -0.00  0.01  0.00   -0.00 -0.01  0.00   
      5   H                0.59 -0.00 -0.42    0.03  0.02 -0.02    0.58  0.09 -0.40   
      6   O               -0.00 -0.00 -0.00   -0.02 -0.05 -0.02    0.00 -0.00  0.00   
      7   C               -0.12 -0.14  0.05    0.02  0.01 -0.01   -0.02  0.07  0.03   
      8   C               -0.13  0.14  0.13    0.02  0.00 -0.01    0.06  0.07 -0.03   
      9   C               -0.01  0.04  0.01   -0.00 -0.02 -0.00   -0.02 -0.04  0.00   
     10   H                0.48  0.13 -0.33    0.02 -0.02 -0.02   -0.55 -0.13  0.38   
     11   C               -0.01  0.01 -0.01    0.05  0.06 -0.04   -0.01  0.00 -0.00   
     12   H                0.01 -0.02  0.01    0.52 -0.37  0.11   -0.03  0.01 -0.00   
     13   H               -0.02  0.01 -0.01   -0.37  0.03 -0.18    0.03 -0.00  0.01   
     14   C               -0.01 -0.00  0.00   -0.09 -0.02  0.09    0.00  0.00 -0.00   
     15   O                0.01  0.00 -0.00    0.10  0.11 -0.03   -0.00 -0.00  0.00   
     16   H               -0.01 -0.01  0.00   -0.39 -0.43  0.12    0.01  0.01 -0.00   
     17   CL               0.02 -0.01 -0.02   -0.00  0.00  0.00   -0.00 -0.00  0.00   
     18   CL              -0.00 -0.00  0.00    0.00  0.00 -0.00    0.00  0.00 -0.00   
     19   CL               0.02  0.02 -0.01   -0.00 -0.00  0.00   -0.00 -0.00 -0.00   

  Vibration                       43                  44                  45          
  Freq [cm^-1]                1386.3570           1402.3781           1488.2930       
  Irrep                           A                   A                   A           
  Reduced mass [u]              1.1994              4.5999              2.0298        
  Force const [mDyne/A]         1.3582              5.3300              2.6490        
  Turning point v=0 [a0]        0.2691              0.1366              0.1996        
  RMS dev v=0 [a0 u^1/2]        0.2084              0.2072              0.2011        
  Char temp [K]               1994.6561           2017.7068           2141.3189       
  ----------------------------------------------------------------------------------
      1   C                0.01  0.00 -0.00   -0.20  0.07  0.17    0.05 -0.02 -0.04   
      2   O                0.01  0.03 -0.01    0.18 -0.09 -0.09    0.03 -0.00 -0.04   
      3   C                0.00 -0.00 -0.00   -0.14  0.20  0.15   -0.08 -0.03  0.05   
      4   C                0.00  0.00 -0.00   -0.07 -0.05  0.05   -0.01  0.06  0.02   
      5   H               -0.02 -0.00  0.01    0.09 -0.01 -0.09    0.03  0.08 -0.01   
      6   O               -0.02 -0.06 -0.02    0.00  0.00  0.00    0.02  0.01 -0.02   
      7   C               -0.00 -0.00  0.00    0.06  0.08 -0.02    0.07 -0.01 -0.05   
      8   C               -0.01 -0.00  0.00    0.15  0.02 -0.11   -0.05 -0.04  0.03   
      9   C                0.00  0.00 -0.00   -0.00 -0.21 -0.05   -0.00  0.05  0.01   
     10   H               -0.00  0.00  0.00    0.59 -0.15 -0.48    0.01  0.06  0.00   
     11   C               -0.00 -0.01  0.00   -0.07  0.01 -0.02   -0.06  0.04  0.01   
     12   H               -0.46  0.32  0.03   -0.16  0.09 -0.02    0.22 -0.13 -0.10   
     13   H                0.53 -0.29 -0.06    0.15 -0.03  0.03    0.54 -0.42 -0.18   
     14   C               -0.01 -0.01  0.02   -0.00  0.01 -0.01   -0.13 -0.02  0.16   
     15   O                0.04  0.07  0.01   -0.01 -0.02 -0.00    0.04 -0.02 -0.06   
     16   H               -0.38 -0.38  0.12    0.10  0.10 -0.03    0.40  0.37 -0.16   
     17   CL               0.00 -0.00 -0.00   -0.01  0.00  0.01    0.00  0.00 -0.00   
     18   CL              -0.00 -0.00  0.00    0.01  0.01 -0.01   -0.00  0.00  0.00   
     19   CL               0.00  0.00 -0.00   -0.01 -0.01  0.00   -0.00 -0.00  0.00   

  Vibration                       46                  47                  48          
  Freq [cm^-1]                1506.7264           1600.5380           1650.3841       
  Irrep                           A                   A                   A           
  Reduced mass [u]              4.6107              1.8895              2.8789        
  Force const [mDyne/A]         6.1671              2.8519              4.6201        
  Turning point v=0 [a0]        0.1316              0.1995              0.1592        
  RMS dev v=0 [a0 u^1/2]        0.1999              0.1939              0.1910        
  Char temp [K]               2167.8405           2302.8143           2374.5316       
  ----------------------------------------------------------------------------------
      1   C               -0.13  0.03  0.10   -0.01 -0.02  0.00   -0.08 -0.10  0.04   
      2   O               -0.10  0.03  0.04   -0.01 -0.01 -0.03    0.04 -0.03 -0.02   
      3   C                0.24  0.08 -0.15    0.01  0.02  0.01   -0.11  0.10  0.10   
      4   C                0.08 -0.14 -0.09    0.03 -0.00 -0.02    0.12  0.04 -0.08   
      5   H               -0.23 -0.23  0.12   -0.09 -0.02  0.06   -0.44 -0.04  0.30   
      6   O                0.02  0.01 -0.02   -0.02 -0.01  0.01    0.00  0.00 -0.00   
      7   C               -0.21  0.02  0.16   -0.02 -0.01  0.01   -0.03 -0.15 -0.02   
      8   C                0.13  0.12 -0.06   -0.00  0.01  0.00   -0.07  0.12  0.08   
      9   C                0.01 -0.10 -0.03    0.01  0.00 -0.01    0.16  0.01 -0.12   
     10   H               -0.15 -0.15  0.08   -0.07 -0.01  0.05   -0.50 -0.11  0.35   
     11   C               -0.00  0.02  0.02   -0.14  0.09  0.08    0.02 -0.03 -0.05   
     12   H                0.15 -0.06 -0.12    0.61 -0.42 -0.05   -0.15 -0.01  0.25   
     13   H                0.33 -0.37 -0.20    0.50 -0.20  0.05    0.03  0.21  0.15   
     14   C               -0.12 -0.02  0.15    0.15  0.01 -0.11   -0.03  0.00  0.01   
     15   O                0.04 -0.01 -0.05   -0.04 -0.00  0.04    0.01 -0.00 -0.01   
     16   H                0.30  0.28 -0.13   -0.18 -0.15  0.07    0.03  0.03 -0.01   
     17   CL              -0.00 -0.00  0.00    0.00 -0.00 -0.00    0.00 -0.00 -0.00   
     18   CL               0.01 -0.00 -0.00    0.00  0.00 -0.00    0.00  0.01 -0.00   
     19   CL               0.01  0.00 -0.01    0.00  0.00 -0.00    0.00  0.01 -0.00   

  Vibration                       49                  50                  51          
  Freq [cm^-1]                1663.7108           1744.1601           1791.1918       
  Irrep                           A                   A                   A           
  Reduced mass [u]              1.1555             10.2884              6.4879        
  Force const [mDyne/A]         1.8845             18.4404             12.2642        
  Turning point v=0 [a0]        0.2503              0.0819              0.1018        
  RMS dev v=0 [a0 u^1/2]        0.1902              0.1858              0.1833        
  Char temp [K]               2393.7057           2509.4543           2577.1222       
  ----------------------------------------------------------------------------------
      1   C                0.01  0.01 -0.01    0.03 -0.41 -0.12    0.18 -0.08 -0.15   
      2   O               -0.02  0.01  0.00    0.02 -0.03 -0.01    0.03 -0.01 -0.02   
      3   C                0.02 -0.01 -0.02    0.07  0.48  0.06   -0.22 -0.02  0.16   
      4   C               -0.01 -0.01  0.01   -0.03 -0.20 -0.03    0.31  0.04 -0.22   
      5   H                0.04  0.00 -0.04    0.00 -0.23 -0.05   -0.43 -0.08  0.29   
      6   O                0.00  0.00 -0.00    0.00 -0.00 -0.00   -0.00 -0.00  0.00   
      7   C               -0.00  0.03  0.01   -0.05  0.36  0.12   -0.17  0.05  0.14   
      8   C                0.01 -0.02 -0.01   -0.12 -0.41 -0.01    0.15  0.05 -0.10   
      9   C               -0.03 -0.00  0.02    0.08  0.20 -0.01   -0.28 -0.03  0.20   
     10   H                0.08  0.02 -0.05   -0.16  0.19  0.16    0.36  0.08 -0.25   
     11   C               -0.01 -0.02 -0.08    0.01 -0.01 -0.00    0.02 -0.01  0.00   
     12   H               -0.04 -0.28  0.65   -0.07  0.07 -0.03   -0.06  0.08 -0.05   
     13   H                0.41  0.40  0.38   -0.07 -0.01 -0.02   -0.12  0.00 -0.03   
     14   C               -0.03 -0.00  0.02   -0.01  0.00  0.00   -0.00  0.00 -0.00   
     15   O                0.01  0.00 -0.01    0.00 -0.00 -0.00   -0.00 -0.00  0.00   
     16   H                0.03  0.03 -0.01    0.01  0.01 -0.00    0.00  0.00  0.00   
     17   CL              -0.00  0.00  0.00    0.00  0.01  0.00   -0.00 -0.00  0.00   
     18   CL              -0.00 -0.00  0.00    0.00  0.01  0.00   -0.00  0.00  0.00   
     19   CL              -0.00 -0.00 -0.00   -0.00 -0.01 -0.00    0.00 -0.00 -0.00   

  Vibration                       52                  53                  54          
  Freq [cm^-1]                2056.7376           3259.7985           3324.9868       
  Irrep                           A                   A                   A           
  Reduced mass [u]             10.2029              1.0583              1.1105        
  Force const [mDyne/A]        25.4291              6.6261              7.2333        
  Turning point v=0 [a0]        0.0757              0.1868              0.1806        
  RMS dev v=0 [a0 u^1/2]        0.1711              0.1359              0.1346        
  Char temp [K]               2959.1830           4690.1171           4783.9084       
  ----------------------------------------------------------------------------------
      1   C               -0.00  0.00  0.00   -0.00  0.00  0.00   -0.00 -0.00  0.00   
      2   O               -0.01  0.00  0.01   -0.00  0.00 -0.00   -0.00  0.00  0.00   
      3   C                0.00 -0.00 -0.01    0.00 -0.00 -0.00    0.00  0.00 -0.00   
      4   C               -0.00  0.00  0.00   -0.00 -0.00  0.00   -0.00  0.00  0.00   
      5   H               -0.00 -0.00  0.00   -0.00  0.00  0.00    0.00 -0.01 -0.00   
      6   O               -0.12 -0.42 -0.12   -0.00 -0.00 -0.00    0.00  0.00  0.00   
      7   C                0.00 -0.00 -0.00    0.00 -0.00 -0.00    0.00 -0.00 -0.00   
      8   C                0.00 -0.00 -0.00   -0.00 -0.00  0.00    0.00  0.00 -0.00   
      9   C                0.00 -0.00 -0.00    0.00  0.00 -0.00   -0.00  0.00  0.00   
     10   H               -0.00 -0.00  0.00   -0.00 -0.00 -0.00   -0.00 -0.00  0.00   
     11   C                0.02 -0.07 -0.04   -0.01  0.00 -0.07   -0.05 -0.08  0.01   
     12   H                0.07 -0.08 -0.10    0.33  0.43  0.16    0.48  0.63  0.25   
     13   H               -0.11  0.17  0.07   -0.19 -0.50  0.62    0.13  0.33 -0.43   
     14   C                0.17  0.68  0.22   -0.00  0.00  0.00   -0.00 -0.00  0.00   
     15   O               -0.03 -0.06 -0.01    0.00 -0.00 -0.00    0.00  0.00 -0.00   
     16   H                0.28  0.29 -0.10    0.00  0.00 -0.00    0.00  0.00  0.00   
     17   CL              -0.00  0.00  0.00   -0.00  0.00  0.00   -0.00  0.00  0.00   
     18   CL              -0.00 -0.00  0.00    0.00 -0.00  0.00    0.00 -0.00  0.00   
     19   CL              -0.00 -0.00  0.00    0.00 -0.00  0.00   -0.00  0.00 -0.00   

  Vibration                       55                  56                  57          
  Freq [cm^-1]                3411.3659           3421.3133           4047.2695       
  Irrep                           A                   A                   A           
  Reduced mass [u]              1.0939              1.0941              1.0651        
  Force const [mDyne/A]         7.5005              7.5453             10.2791        
  Turning point v=0 [a0]        0.1796              0.1793              0.1671        
  RMS dev v=0 [a0 u^1/2]        0.1328              0.1326              0.1220        
  Char temp [K]               4908.1886           4922.5006           5823.1109       
  ----------------------------------------------------------------------------------
      1   C               -0.00  0.00  0.00   -0.00  0.00  0.00   -0.00  0.00  0.00   
      2   O               -0.00  0.00  0.00    0.00 -0.00 -0.00   -0.00  0.00  0.00   
      3   C                0.00  0.00 -0.00   -0.00  0.00  0.00    0.00 -0.00 -0.00   
      4   C               -0.00 -0.09 -0.02    0.00  0.01  0.00   -0.00 -0.00  0.00   
      5   H                0.00  0.96  0.24   -0.00 -0.06 -0.02    0.00  0.00 -0.00   
      6   O               -0.00 -0.00 -0.00    0.00 -0.00 -0.00   -0.00 -0.00  0.00   
      7   C               -0.00  0.00  0.00    0.00  0.00 -0.00    0.00  0.00 -0.00   
      8   C                0.00  0.00 -0.00    0.00  0.00 -0.00    0.00 -0.00 -0.00   
      9   C               -0.00 -0.01 -0.00    0.00 -0.09 -0.02    0.00  0.00 -0.00   
     10   H               -0.00  0.06  0.01   -0.00  0.97  0.22   -0.00  0.00  0.00   
     11   C               -0.00 -0.00  0.00   -0.00  0.00 -0.00   -0.00  0.00  0.00   
     12   H                0.00  0.00  0.00    0.00  0.00  0.00   -0.00 -0.00  0.00   
     13   H                0.00  0.00 -0.01   -0.00 -0.00  0.00    0.00 -0.00  0.00   
     14   C               -0.00  0.00  0.00   -0.00 -0.00  0.00    0.00 -0.00 -0.00   
     15   O                0.00 -0.00 -0.00    0.00  0.00 -0.00    0.03 -0.03 -0.04   
     16   H                0.00 -0.00 -0.00   -0.00  0.00 -0.00   -0.40  0.56  0.72   
     17   CL               0.00 -0.00 -0.00   -0.00  0.00  0.00   -0.00  0.00  0.00   
     18   CL              -0.00 -0.00 -0.00    0.00  0.00 -0.00   -0.00  0.00 -0.00   
     19   CL               0.00  0.00 -0.00   -0.00 -0.00  0.00   -0.00 -0.00  0.00   

  ==> Thermochemistry Components <==

  Entropy, S
    Electronic S            0.000 [cal/(mol K)]        0.000 [J/(mol K)]       0.00000000 [mEh/K] (multiplicity = 1)
    Translational S        42.496 [cal/(mol K)]      177.803 [J/(mol K)]       0.06772143 [mEh/K] (mol. weight = 253.9304 [u], P = 101325.00 [Pa])
    Rotational S           33.372 [cal/(mol K)]      139.626 [J/(mol K)]       0.05318091 [mEh/K] (symmetry no. = 1)
    Vibrational S          39.858 [cal/(mol K)]      166.767 [J/(mol K)]       0.06351801 [mEh/K]
  Total S                 115.726 [cal/(mol K)]      484.196 [J/(mol K)]       0.18442035 [mEh/K]
  Correction S              0.000 [cal/(mol K)]        0.000 [J/(mol K)]       0.00000000 [mEh/K]

  Constant volume heat capacity, Cv
    Electronic Cv           0.000 [cal/(mol K)]        0.000 [J/(mol K)]       0.00000000 [mEh/K]
    Translational Cv        2.981 [cal/(mol K)]       12.472 [J/(mol K)]       0.00475022 [mEh/K]
    Rotational Cv           2.981 [cal/(mol K)]       12.472 [J/(mol K)]       0.00475022 [mEh/K]
    Vibrational Cv         36.105 [cal/(mol K)]      151.063 [J/(mol K)]       0.05753700 [mEh/K]
  Total Cv                 42.067 [cal/(mol K)]      176.007 [J/(mol K)]       0.06703745 [mEh/K]
  Correction Cv             0.000 [cal/(mol K)]        0.000 [J/(mol K)]       0.00000000 [mEh/K]

  Constant pressure heat capacity, Cp
    Electronic Cp           0.000 [cal/(mol K)]        0.000 [J/(mol K)]       0.00000000 [mEh/K]
    Translational Cp        4.968 [cal/(mol K)]       20.786 [J/(mol K)]       0.00791704 [mEh/K]
    Rotational Cp           2.981 [cal/(mol K)]       12.472 [J/(mol K)]       0.00475022 [mEh/K]
    Vibrational Cp         36.105 [cal/(mol K)]      151.063 [J/(mol K)]       0.05753700 [mEh/K]
  Total Cp                 44.054 [cal/(mol K)]      184.321 [J/(mol K)]       0.07020426 [mEh/K]
  Correction Cp             0.000 [cal/(mol K)]        0.000 [J/(mol K)]       0.00000000 [mEh/K]

  ==> Thermochemistry Energy Analysis <==

  Raw electronic energy, E0
  Total E0, Electronic energy at well bottom at 0 [K]                -1908.87559475 [Eh]

  Zero-point energy, ZPE_vib = Sum_i nu_i / 2
    Electronic ZPE          0.000 [kcal/mol]        0.000 [kJ/mol]       0.00000000 [Eh]
    Translational ZPE       0.000 [kcal/mol]        0.000 [kJ/mol]       0.00000000 [Eh]
    Rotational ZPE          0.000 [kcal/mol]        0.000 [kJ/mol]       0.00000000 [Eh]
    Vibrational ZPE        81.140 [kcal/mol]      339.489 [kJ/mol]       0.12930438 [Eh]       28379.027 [cm^-1]
  Correction ZPE           81.140 [kcal/mol]      339.489 [kJ/mol]       0.12930438 [Eh]       28379.027 [cm^-1]
  Total ZPE, Electronic energy at 0 [K]                              -1908.74629037 [Eh]

  Thermal Energy, E (includes ZPE)
    Electronic E            0.000 [kcal/mol]        0.000 [kJ/mol]       0.00000000 [Eh]
    Translational E         0.889 [kcal/mol]        3.718 [kJ/mol]       0.00141628 [Eh]
    Rotational E            0.889 [kcal/mol]        3.718 [kJ/mol]       0.00141628 [Eh]
    Vibrational E          86.808 [kcal/mol]      363.205 [kJ/mol]       0.13833736 [Eh]
  Correction E             88.585 [kcal/mol]      370.642 [kJ/mol]       0.14116992 [Eh]
  Total E, Electronic energy at  298.15 [K]                          -1908.73442483 [Eh]

  Enthalpy, H_trans = E_trans + k_B * T
    Electronic H            0.000 [kcal/mol]        0.000 [kJ/mol]       0.00000000 [Eh]
    Translational H         1.481 [kcal/mol]        6.197 [kJ/mol]       0.00236046 [Eh]
    Rotational H            0.889 [kcal/mol]        3.718 [kJ/mol]       0.00141628 [Eh]
    Vibrational H          86.808 [kcal/mol]      363.205 [kJ/mol]       0.13833736 [Eh]
  Correction H             89.178 [kcal/mol]      373.121 [kJ/mol]       0.14211410 [Eh]
  Total H, Enthalpy at  298.15 [K]                                   -1908.73348064 [Eh]

  Gibbs free energy, G = H - T * S
    Electronic G            0.000 [kcal/mol]        0.000 [kJ/mol]       0.00000000 [Eh]
    Translational G       -11.189 [kcal/mol]      -46.814 [kJ/mol]      -0.01783068 [Eh]
    Rotational G           -9.061 [kcal/mol]      -37.911 [kJ/mol]      -0.01443961 [Eh]
    Vibrational G          74.924 [kcal/mol]      313.483 [kJ/mol]       0.11939947 [Eh]
  Correction G             54.674 [kcal/mol]      228.758 [kJ/mol]       0.08712918 [Eh]
  Total G, Free enthalpy at  298.15 [K]                              -1908.78846557 [Eh]

    Psi4 stopped on: Thursday, 27 September 2018 01:08PM
    Psi4 wall time for execution: 0:19:21.43

*** Psi4 exiting successfully. Buy a developer a beer!
