
    -----------------------------------------------------------------------
          Psi4: An Open-Source Ab Initio Electronic Structure Package
                               Psi4 1.2.1 release

                         Git: Rev {HEAD} 406f4de 


    R. M. Parrish, L. A. Burns, D. G. A. Smith, A. C. Simmonett,
    A. E. DePrince III, E. G. Hohenstein, U. Bozkaya, A. Yu. Sokolov,
    R. Di Remigio, R. M. Richard, J. F. Gonthier, A. M. James,
    H. R. McAlexander, A. Kumar, M. Saitow, X. Wang, B. P. Pritchard,
    P. Verma, H. F. Schaefer III, K. Patkowski, R. A. King, E. F. Valeev,
    F. A. Evangelista, J. M. Turney, T. D. Crawford, and C. D. Sherrill,
    J. Chem. Theory Comput. 13(7) pp 3185--3197 (2017).
    (doi: 10.1021/acs.jctc.7b00174)


                         Additional Contributions by
    P. Kraus, H. Kruse, M. H. Lechner, M. C. Schieber, and R. A. Shaw

    -----------------------------------------------------------------------


    Psi4 started on: Wednesday, 26 September 2018 03:50PM

    Process ID: 433499
    Host:       wr53
    PSIDATADIR: /usr/local/hpc1/software_molmod/psi4/psi4conda/share/psi4
    Memory:     500.0 MiB
    Threads:    16
    
  ==> Input File <==

--------------------------------------------------------------------------
memory 100 Gb

molecule molecule_1 {
0 1
C          1.24300       -0.55300       -0.65700
O          1.24700        1.78400       -0.14900
C          0.57800        0.61900       -0.32200
C         -0.80200        0.60500       -0.23200
H         -1.31100        1.51600        0.01000
O          1.37400        2.93700        3.21100
C         -1.51600       -0.55900       -0.45500
C         -0.84400       -1.72900       -0.77500
C          0.53600       -1.71800       -0.87700
H          1.05700       -2.61900       -1.13400
C          1.85900        2.01700        1.08900
H          2.72600        2.63500        0.90300
H          2.19700        1.10200        1.55600
C          1.00100        2.75300        2.09900
O         -0.15900        3.18800        1.63700
H         -0.60300        3.65000        2.34300
Cl        -1.67800       -3.21900       -1.06200
Cl         2.97000       -0.56900       -0.82600
Cl        -3.24100       -0.50300       -0.32300
}
set globals {
  reference rhf
  g_convergence gau_tight
  basis 6-31G(d)
}
optimize('scf')
print_variables()

--------------------------------------------------------------------------

  Memory set to  93.132 GiB by Python driver.
gradient() will perform analytic gradient computation.

*** tstart() called on wr53
*** at Wed Sep 26 15:50:18 2018

   => Loading Basis Set <=

    Name: 6-31G(D)
    Role: ORBITAL
    Keyword: BASIS
    atoms 1, 3-4, 7-9, 11, 14 entry C          line   111 file /usr/local/hpc1/software_molmod/psi4/psi4conda/share/psi4/basis/6-31g_d_.gbs 
    atoms 2, 6, 15            entry O          line   145 file /usr/local/hpc1/software_molmod/psi4/psi4conda/share/psi4/basis/6-31g_d_.gbs 
    atoms 5, 10, 12-13, 16    entry H          line    44 file /usr/local/hpc1/software_molmod/psi4/psi4conda/share/psi4/basis/6-31g_d_.gbs 
    atoms 17-19               entry CL         line   340 file /usr/local/hpc1/software_molmod/psi4/psi4conda/share/psi4/basis/6-31g_d_.gbs 


         ---------------------------------------------------------
                                   SCF
            by Justin Turney, Rob Parrish, Andy Simmonett
                             and Daniel Smith
                              RHF Reference
                       16 Threads,  95367 MiB Core
         ---------------------------------------------------------

  ==> Geometry <==

    Molecular point group: c1
    Full point group: C1

    Geometry (in Angstrom), charge = 0, multiplicity = 1:

       Center              X                  Y                   Z               Mass       
    ------------   -----------------  -----------------  -----------------  -----------------
         C            1.243066937640    -0.553022074429    -0.656963576580    12.000000000000
         O            1.247066937640     1.783977925571    -0.148963576580    15.994914619560
         C            0.578066937640     0.618977925571    -0.321963576580    12.000000000000
         C           -0.801933062360     0.604977925571    -0.231963576580    12.000000000000
         H           -1.310933062360     1.515977925571     0.010036423420     1.007825032070
         O            1.374066937640     2.936977925571     3.211036423420    15.994914619560
         C           -1.515933062360    -0.559022074429    -0.454963576580    12.000000000000
         C           -0.843933062360    -1.729022074429    -0.774963576580    12.000000000000
         C            0.536066937640    -1.718022074429    -0.876963576580    12.000000000000
         H            1.057066937640    -2.619022074429    -1.133963576580     1.007825032070
         C            1.859066937640     2.016977925571     1.089036423420    12.000000000000
         H            2.726066937640     2.634977925571     0.903036423420     1.007825032070
         H            2.197066937640     1.101977925571     1.556036423420     1.007825032070
         C            1.001066937640     2.752977925571     2.099036423420    12.000000000000
         O           -0.158933062360     3.187977925571     1.637036423420    15.994914619560
         H           -0.602933062360     3.649977925571     2.343036423420     1.007825032070
         CL          -1.677933062360    -3.219022074429    -1.061963576580    34.968852682000
         CL           2.970066937640    -0.569022074429    -0.825963576580    34.968852682000
         CL          -3.240933062360    -0.503022074429    -0.322963576580    34.968852682000

  Running in c1 symmetry.

  Rotational constants: A =      0.02123  B =      0.01041  C =      0.00744 [cm^-1]
  Rotational constants: A =    636.46650  B =    311.99120  C =    223.17643 [MHz]
  Nuclear repulsion = 1187.266179679157403

  Charge       = 0
  Multiplicity = 1
  Electrons    = 128
  Nalpha       = 64
  Nbeta        = 64

  ==> Algorithm <==

  SCF Algorithm Type is DF.
  DIIS enabled.
  MOM disabled.
  Fractional occupation disabled.
  Guess Type is SAD.
  Energy threshold   = 1.00e-08
  Density threshold  = 1.00e-08
  Integral threshold = 0.00e+00

  ==> Primary Basis <==

  Basis Set: 6-31G(D)
    Blend: 6-31G(D)
    Number of shells: 100
    Number of basis function: 232
    Number of Cartesian functions: 232
    Spherical Harmonics?: false
    Max angular momentum: 2

   => Loading Basis Set <=

    Name: (6-31G(D) AUX)
    Role: JKFIT
    Keyword: DF_BASIS_SCF
    atoms 1, 3-4, 7-9, 11, 14 entry C          line   121 file /usr/local/hpc1/software_molmod/psi4/psi4conda/share/psi4/basis/cc-pvdz-jkfit.gbs 
    atoms 2, 6, 15            entry O          line   221 file /usr/local/hpc1/software_molmod/psi4/psi4conda/share/psi4/basis/cc-pvdz-jkfit.gbs 
    atoms 5, 10, 12-13, 16    entry H          line    51 file /usr/local/hpc1/software_molmod/psi4/psi4conda/share/psi4/basis/cc-pvdz-jkfit.gbs 
    atoms 17-19               entry CL         line   667 file /usr/local/hpc1/software_molmod/psi4/psi4conda/share/psi4/basis/cc-pvdz-jkfit.gbs 

  ==> Pre-Iterations <==

   -------------------------------------------------------
    Irrep   Nso     Nmo     Nalpha   Nbeta   Ndocc  Nsocc
   -------------------------------------------------------
     A        232     232       0       0       0       0
   -------------------------------------------------------
    Total     232     232      64      64      64       0
   -------------------------------------------------------

  ==> Integral Setup <==

  ==> DiskDFJK: Density-Fitted J/K Matrices <==

    J tasked:                  Yes
    K tasked:                  Yes
    wK tasked:                  No
    OpenMP threads:             16
    Integrals threads:          16
    Memory (MB):             71525
    Algorithm:                Core
    Integral Cache:           NONE
    Schwarz Cutoff:          1E-12
    Fitting Condition:       1E-12

   => Auxiliary Basis Set <=

  Basis Set: (6-31G(D) AUX)
    Blend: CC-PVDZ-JKFIT
    Number of shells: 417
    Number of basis function: 1406
    Number of Cartesian functions: 1406
    Spherical Harmonics?: false
    Max angular momentum: 3

  Minimum eigenvalue in the overlap matrix is 3.6594326518E-04.
  Using Symmetric Orthogonalization.

  SCF Guess: Superposition of Atomic Densities via on-the-fly atomic UHF.

  ==> Iterations <==

                           Total Energy        Delta E     RMS |[F,P]|

   @DF-RHF iter   0: -1915.66308119720338   -1.91566e+03   4.24733e-02 
   @DF-RHF iter   1: -1908.45093106970467    7.21215e+00   4.64590e-03 
   @DF-RHF iter   2: -1908.76717082426444   -3.16240e-01   2.88359e-03 DIIS
   @DF-RHF iter   3: -1908.86318141864831   -9.60106e-02   7.70989e-04 DIIS
   @DF-RHF iter   4: -1908.87805161790516   -1.48702e-02   2.85462e-04 DIIS
   @DF-RHF iter   5: -1908.87965523585649   -1.60362e-03   1.03654e-04 DIIS
   @DF-RHF iter   6: -1908.87992365260197   -2.68417e-04   4.13528e-05 DIIS
   @DF-RHF iter   7: -1908.87995112745102   -2.74748e-05   8.18115e-06 DIIS
   @DF-RHF iter   8: -1908.87995336496488   -2.23751e-06   3.44963e-06 DIIS
   @DF-RHF iter   9: -1908.87995374571619   -3.80751e-07   1.42904e-06 DIIS
   @DF-RHF iter  10: -1908.87995381981045   -7.40943e-08   5.98624e-07 DIIS
   @DF-RHF iter  11: -1908.87995383502403   -1.52136e-08   3.43332e-07 DIIS
   @DF-RHF iter  12: -1908.87995383767770   -2.65368e-09   1.07484e-07 DIIS
   @DF-RHF iter  13: -1908.87995383818134   -5.03633e-10   4.49208e-08 DIIS
   @DF-RHF iter  14: -1908.87995383827024   -8.89031e-11   1.90978e-08 DIIS
   @DF-RHF iter  15: -1908.87995383828184   -1.15961e-11   7.30558e-09 DIIS

  ==> Post-Iterations <==

    Orbital Energies [Eh]
    ---------------------

    Doubly Occupied:                                                      

       1A   -104.850271     2A   -104.846882     3A   -104.846506  
       4A    -20.639435     5A    -20.616826     6A    -20.571758  
       7A    -11.405036     8A    -11.337725     9A    -11.335837  
      10A    -11.333411    11A    -11.329282    12A    -11.323696  
      13A    -11.283576    14A    -11.273012    15A    -10.583310  
      16A    -10.580146    17A    -10.579733    18A     -8.052752  
      19A     -8.049590    20A     -8.049305    21A     -8.049247  
      22A     -8.049179    23A     -8.046064    24A     -8.046040  
      25A     -8.045642    26A     -8.045638    27A     -1.502224  
      28A     -1.448583    29A     -1.390555    30A     -1.244221  
      31A     -1.187289    32A     -1.154118    33A     -1.114715  
      34A     -1.055523    35A     -1.021177    36A     -0.981987  
      37A     -0.882625    38A     -0.869798    39A     -0.825349  
      40A     -0.751132    41A     -0.740057    42A     -0.719961  
      43A     -0.709882    44A     -0.685345    45A     -0.672168  
      46A     -0.652334    47A     -0.639782    48A     -0.613199  
      49A     -0.609309    50A     -0.593453    51A     -0.575151  
      52A     -0.564225    53A     -0.550042    54A     -0.530581  
      55A     -0.514692    56A     -0.500703    57A     -0.495601  
      58A     -0.485553    59A     -0.474875    60A     -0.460830  
      61A     -0.459174    62A     -0.451538    63A     -0.366067  
      64A     -0.346847  

    Virtual:                                                              

      65A      0.096515    66A      0.105250    67A      0.148893  
      68A      0.171609    69A      0.202824    70A      0.209760  
      71A      0.234171    72A      0.251234    73A      0.287781  
      74A      0.294445    75A      0.312989    76A      0.322324  
      77A      0.329619    78A      0.386925    79A      0.407677  
      80A      0.428733    81A      0.436846    82A      0.450431  
      83A      0.472139    84A      0.482150    85A      0.524173  
      86A      0.535267    87A      0.561051    88A      0.577033  
      89A      0.585707    90A      0.598068    91A      0.605415  
      92A      0.618949    93A      0.628248    94A      0.637425  
      95A      0.650726    96A      0.660461    97A      0.664038  
      98A      0.679599    99A      0.704415   100A      0.709596  
     101A      0.735548   102A      0.746067   103A      0.780032  
     104A      0.789788   105A      0.804965   106A      0.816489  
     107A      0.825460   108A      0.840769   109A      0.848689  
     110A      0.876579   111A      0.887489   112A      0.901097  
     113A      0.933204   114A      0.954510   115A      0.957748  
     116A      0.967782   117A      0.994139   118A      1.003449  
     119A      1.030409   120A      1.040270   121A      1.045406  
     122A      1.054596   123A      1.072493   124A      1.090585  
     125A      1.103783   126A      1.114885   127A      1.121813  
     128A      1.129731   129A      1.130234   130A      1.139984  
     131A      1.142337   132A      1.151382   133A      1.160532  
     134A      1.178653   135A      1.188865   136A      1.203140  
     137A      1.216429   138A      1.229848   139A      1.247179  
     140A      1.261566   141A      1.285913   142A      1.293700  
     143A      1.305194   144A      1.327441   145A      1.343685  
     146A      1.353929   147A      1.362886   148A      1.406363  
     149A      1.412078   150A      1.422632   151A      1.450761  
     152A      1.456612   153A      1.473928   154A      1.552781  
     155A      1.572573   156A      1.595670   157A      1.619485  
     158A      1.660693   159A      1.671265   160A      1.680260  
     161A      1.693447   162A      1.739795   163A      1.762242  
     164A      1.779234   165A      1.795946   166A      1.804977  
     167A      1.827806   168A      1.891490   169A      1.895253  
     170A      1.957930   171A      2.008805   172A      2.032924  
     173A      2.040937   174A      2.055768   175A      2.080090  
     176A      2.084943   177A      2.120632   178A      2.130112  
     179A      2.184582   180A      2.204163   181A      2.225764  
     182A      2.245223   183A      2.265053   184A      2.330798  
     185A      2.346964   186A      2.354257   187A      2.375912  
     188A      2.385279   189A      2.414081   190A      2.423523  
     191A      2.452415   192A      2.483341   193A      2.521301  
     194A      2.581377   195A      2.583692   196A      2.598716  
     197A      2.643124   198A      2.657961   199A      2.747463  
     200A      2.815254   201A      2.839534   202A      2.881895  
     203A      2.892542   204A      2.973633   205A      2.993418  
     206A      3.018129   207A      3.071559   208A      3.075102  
     209A      3.084266   210A      3.113714   211A      3.169607  
     212A      3.186119   213A      3.259607   214A      3.373758  
     215A      3.400448   216A      3.489913   217A      3.510843  
     218A      3.710438   219A      4.234561   220A      4.426360  
     221A      4.452613   222A      4.479617   223A      4.518254  
     224A      4.586465   225A      4.632230   226A      4.667022  
     227A      4.725448   228A      4.749482   229A      4.803108  
     230A      4.863565   231A      4.951440   232A      5.143959  

    Final Occupation by Irrep:
              A 
    DOCC [    64 ]

  Energy converged.

  @DF-RHF Final Energy: -1908.87995383828184

   => Energetics <=

    Nuclear Repulsion Energy =           1187.2661796791574034
    One-Electron Energy =               -4992.2711410266820167
    Two-Electron Energy =                1896.1250075092430052
    Total Energy =                      -1908.8799538382818355



Properties will be evaluated at   0.000000,   0.000000,   0.000000 [a0]

Properties computed using the SCF density matrix

  Nuclear Dipole Moment: [e a0]
     X:     5.6079      Y:     9.8571      Z:     5.4947

  Electronic Dipole Moment: [e a0]
     X:    -5.5550      Y:    -9.5342      Z:    -5.4393

  Dipole Moment: [e a0]
     X:     0.0529      Y:     0.3229      Z:     0.0553     Total:     0.3319

  Dipole Moment: [D]
     X:     0.1346      Y:     0.8208      Z:     0.1407     Total:     0.8436


*** tstop() called on wr53 at Wed Sep 26 15:50:30 2018
Module time:
	user time   =      75.71 seconds =       1.26 minutes
	system time =       5.30 seconds =       0.09 minutes
	total time  =         12 seconds =       0.20 minutes
Total time:
	user time   =      75.71 seconds =       1.26 minutes
	system time =       5.30 seconds =       0.09 minutes
	total time  =         12 seconds =       0.20 minutes

*** tstart() called on wr53
*** at Wed Sep 26 15:50:30 2018


         ------------------------------------------------------------
                                   SCF GRAD                          
                          Rob Parrish, Justin Turney,                
                       Andy Simmonett, and Alex Sokolov              
         ------------------------------------------------------------

  ==> Geometry <==

    Molecular point group: c1
    Full point group: C1

    Geometry (in Angstrom), charge = 0, multiplicity = 1:

       Center              X                  Y                   Z               Mass       
    ------------   -----------------  -----------------  -----------------  -----------------
         C            1.243066937640    -0.553022074429    -0.656963576580    12.000000000000
         O            1.247066937640     1.783977925571    -0.148963576580    15.994914619560
         C            0.578066937640     0.618977925571    -0.321963576580    12.000000000000
         C           -0.801933062360     0.604977925571    -0.231963576580    12.000000000000
         H           -1.310933062360     1.515977925571     0.010036423420     1.007825032070
         O            1.374066937640     2.936977925571     3.211036423420    15.994914619560
         C           -1.515933062360    -0.559022074429    -0.454963576580    12.000000000000
         C           -0.843933062360    -1.729022074429    -0.774963576580    12.000000000000
         C            0.536066937640    -1.718022074429    -0.876963576580    12.000000000000
         H            1.057066937640    -2.619022074429    -1.133963576580     1.007825032070
         C            1.859066937640     2.016977925571     1.089036423420    12.000000000000
         H            2.726066937640     2.634977925571     0.903036423420     1.007825032070
         H            2.197066937640     1.101977925571     1.556036423420     1.007825032070
         C            1.001066937640     2.752977925571     2.099036423420    12.000000000000
         O           -0.158933062360     3.187977925571     1.637036423420    15.994914619560
         H           -0.602933062360     3.649977925571     2.343036423420     1.007825032070
         CL          -1.677933062360    -3.219022074429    -1.061963576580    34.968852682000
         CL           2.970066937640    -0.569022074429    -0.825963576580    34.968852682000
         CL          -3.240933062360    -0.503022074429    -0.322963576580    34.968852682000

  Nuclear repulsion = 1187.266179679157403

  ==> Basis Set <==

  Basis Set: 6-31G(D)
    Blend: 6-31G(D)
    Number of shells: 100
    Number of basis function: 232
    Number of Cartesian functions: 232
    Spherical Harmonics?: false
    Max angular momentum: 2

  ==> DFJKGrad: Density-Fitted SCF Gradients <==

    Gradient:                    1
    J tasked:                  Yes
    K tasked:                  Yes
    wK tasked:                  No
    OpenMP threads:             16
    Integrals threads:          16
    Memory (MB):             71525
    Schwarz Cutoff:          0E+00
    Fitting Condition:       1E-12

   => Auxiliary Basis Set <=

  Basis Set: (6-31G(D) AUX)
    Blend: CC-PVDZ-JKFIT
    Number of shells: 417
    Number of basis function: 1406
    Number of Cartesian functions: 1406
    Spherical Harmonics?: false
    Max angular momentum: 3


  -Total Gradient:
     Atom            X                  Y                   Z
    ------   -----------------  -----------------  -----------------
       1       -0.000495954213     0.000358329806     0.000087852871
       2       -0.000136181009    -0.000179054117    -0.000363896398
       3        0.000721575189    -0.000090050971     0.000163419630
       4       -0.000192131490    -0.000446581436    -0.000215213327
       5       -0.000062253554     0.000217460427     0.000064671800
       6        0.000406899687     0.000299350019     0.001319898423
       7       -0.000294553378    -0.000151867719     0.000056496985
       8        0.000327448166     0.000182530198    -0.000040128945
       9       -0.000195125724     0.000096345266    -0.000045683058
      10        0.000118120936    -0.000151827496     0.000021465413
      11        0.000123508594     0.000211090177     0.000243920275
      12       -0.000060204443    -0.000063114477    -0.000004675972
      13        0.000025286485    -0.000079230581     0.000034695133
      14       -0.000117189452    -0.000562929091    -0.001374639037
      15       -0.000138061692     0.000099138099    -0.000066381880
      16       -0.000161996070     0.000107953950     0.000089541818
      17        0.000029092779     0.000090467748     0.000027979797
      18        0.000060895656     0.000005102829    -0.000014600134
      19        0.000040823655     0.000056887510     0.000015276571


*** tstop() called on wr53 at Wed Sep 26 15:50:37 2018
Module time:
	user time   =      54.20 seconds =       0.90 minutes
	system time =       1.58 seconds =       0.03 minutes
	total time  =          7 seconds =       0.12 minutes
Total time:
	user time   =     129.92 seconds =       2.17 minutes
	system time =       6.88 seconds =       0.11 minutes
	total time  =         19 seconds =       0.32 minutes

			-----------------------------------------
			 OPTKING 2.0: for geometry optimizations 
			  - R.A. King,  Bethel University        
			-----------------------------------------

	Internal coordinates to be generated automatically.
	Detected frag 1 with atoms:  1 2 3 4 5 6 7 8 9 10 11 12 13 14 15 16 17 18 19
	---Fragment 1 Bond Connectivity---
	 1 : 3 9 18
	 2 : 3 11
	 3 : 1 2 4
	 4 : 3 5 7
	 5 : 4
	 6 : 14
	 7 : 4 8 19
	 8 : 7 9 17
	 9 : 1 8 10
	 10 : 9
	 11 : 2 12 13 14
	 12 : 11
	 13 : 11
	 14 : 6 11 15
	 15 : 14 16
	 16 : 15
	 17 : 8
	 18 : 1
	 19 : 7

	---Fragment 1 Geometry and Gradient---
	 C           2.3490560770       -1.0450602661       -1.2414812390
	 O           2.3566149815        3.3712297064       -0.2815003635
	 C           1.0923881986        1.1696987616       -0.6084229845
	 C          -1.5154338648        1.1432425958       -0.4383476325
	 H          -2.4773044664        2.8647831028        0.0189660916
	 O           2.5966102004        5.5500839377        6.0679794430
	 C          -2.8646983236       -1.0563986229       -0.8597565602
	 C          -1.5948023623       -3.2673781984       -1.4644689227
	 C           1.0130197010       -3.2465912109       -1.6572209883
	 H           1.9975670163       -4.9492344567       -2.1428806044
	 C           3.5131273748        3.8115358954        2.0579805890
	 H           5.1515199321        4.9793866455        1.7064915283
	 H           4.1518548078        2.0824364838        2.9404826931
	 C           1.8917423528        5.2023743292        3.9666039832
	 O          -0.3003399613        6.0244051970        3.0935505098
	 H          -1.1393783643        6.8974586704        4.4276971596
	 CL         -3.1708339572       -6.0830701364       -2.0068203228
	 CL          5.6126131085       -1.0752958842       -1.5608449555
	 CL         -6.1244759029       -0.9505739595       -0.6103127106
	            -0.0004959542        0.0003583298        0.0000878529
	            -0.0001361810       -0.0001790541       -0.0003638964
	             0.0007215752       -0.0000900510        0.0001634196
	            -0.0001921315       -0.0004465814       -0.0002152133
	            -0.0000622536        0.0002174604        0.0000646718
	             0.0004068997        0.0002993500        0.0013198984
	            -0.0002945534       -0.0001518677        0.0000564970
	             0.0003274482        0.0001825302       -0.0000401289
	            -0.0001951257        0.0000963453       -0.0000456831
	             0.0001181209       -0.0001518275        0.0000214654
	             0.0001235086        0.0002110902        0.0002439203
	            -0.0000602044       -0.0000631145       -0.0000046760
	             0.0000252865       -0.0000792306        0.0000346951
	            -0.0001171895       -0.0005629291       -0.0013746390
	            -0.0001380617        0.0000991381       -0.0000663819
	            -0.0001619961        0.0001079539        0.0000895418
	             0.0000290928        0.0000904677        0.0000279798
	             0.0000608957        0.0000051028       -0.0000146001
	             0.0000408237        0.0000568875        0.0000152766

	Previous optimization step data not found.  Starting new optimization.

	---Fragment 1 Intrafragment Coordinates---
	 - Coordinate -           - BOHR/RAD -       - ANG/DEG -
	 R(1,3)           =         2.623954	       1.388537
	 R(1,9)           =         2.608557	       1.380389
	 R(1,18)          =         3.279285	       1.735323
	 R(2,3)           =         2.559665	       1.354517
	 R(2,11)          =         2.646613	       1.400527
	 R(3,4)           =         2.613496	       1.383003
	 R(4,5)           =         2.024360	       1.071245
	 R(4,7)           =         2.614674	       1.383626
	 R(6,14)          =         2.243551	       1.187236
	 R(7,8)           =         2.620447	       1.386681
	 R(7,19)          =         3.271020	       1.730949
	 R(8,9)           =         2.615018	       1.383808
	 R(8,17)          =         3.272024	       1.731481
	 R(9,10)          =         2.025881	       1.072050
	 R(11,12)         =         2.042486	       1.080837
	 R(11,13)         =         2.043665	       1.081461
	 R(11,14)         =         2.864640	       1.515902
	 R(14,15)         =         2.498636	       1.322221
	 R(15,16)         =         1.801709	       0.953423
	 B(1,3,2)         =         2.117919	     121.347809
	 B(1,3,4)         =         2.077203	     119.014943
	 B(1,9,8)         =         2.101020	     120.379572
	 B(1,9,10)        =         2.092785	     119.907723
	 B(2,3,4)         =         2.086591	     119.552833
	 B(2,11,12)       =         1.868715	     107.069462
	 B(2,11,13)       =         1.957920	     112.180527
	 B(2,11,14)       =         2.006883	     114.985913
	 B(3,1,9)         =         2.100771	     120.365333
	 B(3,1,18)        =         2.103545	     120.524235
	 B(3,2,11)        =         2.062142	     118.152048
	 B(3,4,5)         =         2.071689	     118.699041
	 B(3,4,7)         =         2.109406	     120.860049
	 B(4,7,8)         =         2.090853	     119.797040
	 B(4,7,19)        =         2.065481	     118.343352
	 B(5,4,7)         =         2.102080	     120.440320
	 B(6,14,11)       =         2.119371	     121.431016
	 B(6,14,15)       =         2.155451	     123.498235
	 B(7,8,9)         =         2.086997	     119.576128
	 B(7,8,17)        =         2.130456	     122.066149
	 B(8,7,19)        =         2.126851	     121.859608
	 B(8,9,10)        =         2.089364	     119.711757
	 B(9,1,18)        =         2.078778	     119.105230
	 B(9,8,17)        =         2.065722	     118.357134
	 B(11,14,15)      =         2.008088	     115.054943
	 B(12,11,13)      =         1.883230	     107.901132
	 B(12,11,14)      =         1.866139	     106.921888
	 B(13,11,14)      =         1.875462	     107.456035
	 B(14,15,16)      =         1.885189	     108.013376
	 D(1,3,2,11)      =        -1.436199	     -82.288134
	 D(1,3,4,5)       =        -3.123179	    -178.944990
	 D(1,3,4,7)       =         0.013558	       0.776845
	 D(1,9,8,7)       =         0.004574	       0.262065
	 D(1,9,8,17)      =         3.141399	     179.988898
	 D(2,3,1,9)       =        -3.099560	    -177.591685
	 D(2,3,1,18)      =         0.027423	       1.571212
	 D(2,3,4,5)       =        -0.039097	      -2.240110
	 D(2,3,4,7)       =         3.097640	     177.481724
	 D(2,11,14,6)     =         3.058439	     175.235623
	 D(2,11,14,15)    =        -0.107551	      -6.162211
	 D(3,1,9,8)       =         0.007601	       0.435496
	 D(3,1,9,10)      =        -3.140189	    -179.919594
	 D(3,2,11,12)     =         2.612227	     149.669576
	 D(3,2,11,13)     =         0.549395	      31.478013
	 D(3,2,11,14)     =        -1.600636	     -91.709711
	 D(3,4,7,8)       =        -0.001562	      -0.089479
	 D(3,4,7,19)      =         3.140080	     179.913309
	 D(4,3,1,9)       =        -0.016548	      -0.948131
	 D(4,3,1,18)      =         3.110434	     178.214766
	 D(4,3,2,11)      =         1.764284	     101.086050
	 D(4,7,8,9)       =        -0.007580	      -0.434312
	 D(4,7,8,17)      =         3.138963	     179.849353
	 D(5,4,7,8)       =         3.135092	     179.627517
	 D(5,4,7,19)      =        -0.006452	      -0.369694
	 D(6,14,11,12)    =        -1.152985	     -66.061146
	 D(6,14,11,13)    =         0.865039	      49.563063
	 D(6,14,15,16)    =        -0.001203	      -0.068909
	 D(7,8,9,10)      =        -3.130833	    -179.383541
	 D(8,9,1,18)      =        -3.119588	    -178.739199
	 D(9,8,7,19)      =         3.133962	     179.562798
	 D(10,9,1,18)     =         0.015808	       0.905711
	 D(10,9,8,17)     =         0.005992	       0.343293
	 D(11,14,15,16)   =        -3.117832	    -178.638605
	 D(12,11,14,15)   =         1.964211	     112.541019
	 D(13,11,14,15)   =        -2.300951	    -131.834771
	 D(17,8,7,19)     =        -0.002680	      -0.153537
	 R(3,15)          =         6.261986	       3.313700
	 R(4,14)          =         6.891226	       3.646680
	 R(4,15)          =         6.146260	       3.252460
	 R(11,18)         =         6.433107	       3.404254

	Current energy   :     -1908.8799538383

	Generating empirical Hessian (Schlegel '84) for each fragment.
	Taking RFO optimization step.
	Going to follow RFO solution 1.
	Using RFO vector 1.
	Norm of target step-size    0.01276
	Projected energy change by RFO approximation:         0.0000031672

	Back-transformation to cartesian coordinates...
	Could not converge backtransformation.
	Using first guess instead.

	--- Internal Coordinate Step in ANG or DEG, aJ/ANG or AJ/DEG ---
	 ---------------------------------------------------------------------------
	   Coordinate                Previous        Force       Change         New 
	   ----------                --------       ------       ------       ------
	    1 R(1,3)          =      1.388537     0.003697     0.000570     1.389107
	    2 R(1,9)          =      1.380389     0.000568     0.000094     1.380483
	    3 R(1,18)         =      1.735323    -0.000681    -0.000105     1.735218
	    4 R(2,3)          =      1.354517     0.001472     0.000189     1.354705
	    5 R(2,11)         =      1.400527    -0.002116    -0.000287     1.400240
	    6 R(3,4)          =      1.383003    -0.002659    -0.000355     1.382647
	    7 R(4,5)          =      1.071245    -0.001888    -0.000327     1.070918
	    8 R(4,7)          =      1.383626     0.000435     0.000038     1.383665
	    9 R(6,14)         =      1.187236    -0.011621    -0.000659     1.186577
	   10 R(7,8)          =      1.386681     0.000610     0.000064     1.386745
	   11 R(7,19)         =      1.730949     0.000310     0.000062     1.731011
	   12 R(8,9)          =      1.383808     0.001475     0.000197     1.384005
	   13 R(8,17)         =      1.731481     0.000795     0.000158     1.731638
	   14 R(9,10)         =      1.072050    -0.001482    -0.000257     1.071793
	   15 R(11,12)        =      1.080837     0.000689     0.000124     1.080961
	   16 R(11,13)        =      1.081461    -0.000741    -0.000133     1.081328
	   17 R(11,14)        =      1.515902     0.000566     0.000085     1.515987
	   18 R(14,15)        =      1.322221    -0.002610    -0.000279     1.321942
	   19 R(15,16)        =      0.953423    -0.001599    -0.000178     0.953245
	   20 B(1,3,2)        =    121.347809    -0.000005     0.004582   121.352391
	   21 B(1,3,4)        =    119.014943     0.000009     0.025055   119.039998
	   22 B(1,9,8)        =    120.379572     0.000001     0.011542   120.391114
	   23 B(1,9,10)       =    119.907723     0.000002     0.004661   119.912384
	   24 B(2,3,4)        =    119.552833    -0.000004    -0.022925   119.529908
	   25 B(2,11,12)      =    107.069462     0.000001     0.007597   107.077059
	   26 B(2,11,13)      =    112.180527    -0.000001     0.004102   112.184629
	   27 B(2,11,14)      =    114.985913     0.000002    -0.001904   114.984009
	   28 B(3,1,9)        =    120.365333    -0.000008    -0.022656   120.342677
	   29 B(3,1,18)       =    120.524235    -0.000001     0.011444   120.535679
	   30 B(3,2,11)       =    118.152048     0.000006     0.024573   118.176622
	   31 B(3,4,5)        =    118.699041     0.000008     0.032639   118.731680
	   32 B(3,4,7)        =    120.860049    -0.000008    -0.027696   120.832353
	   33 B(4,7,8)        =    119.797040     0.000016     0.044670   119.841710
	   34 B(4,7,19)       =    118.343352    -0.000000     0.000450   118.343802
	   35 B(5,4,7)        =    120.440320    -0.000000    -0.005283   120.435037
	   36 B(6,14,11)      =    121.431016    -0.000003    -0.004425   121.426591
	   37 B(6,14,15)      =    123.498235     0.000009     0.031472   123.529707
	   38 B(7,8,9)        =    119.576128    -0.000010    -0.030123   119.546005
	   39 B(7,8,17)       =    122.066149     0.000008     0.022667   122.088817
	   40 B(8,7,19)       =    121.859608    -0.000016    -0.045123   121.814485
	   41 B(8,9,10)       =    119.711757    -0.000003    -0.016727   119.695031
	   42 B(9,1,18)       =    119.105230     0.000009     0.011126   119.116356
	   43 B(9,8,17)       =    118.357134     0.000002     0.007216   118.364350
	   44 B(11,14,15)     =    115.054943    -0.000006    -0.019252   115.035691
	   45 B(12,11,13)     =    107.901132     0.000000     0.001547   107.902679
	   46 B(12,11,14)     =    106.921888    -0.000003    -0.015394   106.906494
	   47 B(13,11,14)     =    107.456035     0.000000     0.003209   107.459243
	   48 B(14,15,16)     =    108.013376    -0.000012    -0.058507   107.954869
	   49 D(1,3,2,11)     =    -82.288134     0.000001     0.098827   -82.189307
	   50 D(1,3,4,5)      =   -178.944990    -0.000000    -0.033098  -178.978088
	   51 D(1,3,4,7)      =      0.776845    -0.000001    -0.104310     0.672534
	   52 D(1,9,8,7)      =      0.262065    -0.000000    -0.000666     0.261399
	   53 D(1,9,8,17)     =    179.988898    -0.000000    -0.051569   179.937329
	   54 D(2,3,1,9)      =   -177.591685    -0.000000    -0.070080  -177.661765
	   55 D(2,3,1,18)     =      1.571212    -0.000000    -0.076877     1.494335
	   56 D(2,3,4,5)      =     -2.240110     0.000001     0.100659    -2.139451
	   57 D(2,3,4,7)      =    177.481724     0.000000     0.029447   177.511171
	   58 D(2,11,14,6)    =    175.235623    -0.000000    -0.289644   174.945979
	   59 D(2,11,14,15)   =     -6.162211     0.000000     0.113338    -6.048873
	   60 D(3,1,9,8)      =      0.435496    -0.000000    -0.013880     0.421616
	   61 D(3,1,9,10)     =   -179.919594    -0.000001    -0.101321  -180.020914
	   62 D(3,2,11,12)    =    149.669576    -0.000000    -0.071784   149.597792
	   63 D(3,2,11,13)    =     31.478013    -0.000000    -0.080762    31.397251
	   64 D(3,2,11,14)    =    -91.709711    -0.000001    -0.086990   -91.796702
	   65 D(3,4,7,8)      =     -0.089479     0.000001     0.091321     0.001842
	   66 D(3,4,7,19)     =    179.913309     0.000000     0.068004   179.981314
	   67 D(4,3,1,9)      =     -0.948131     0.000000     0.065284    -0.882847
	   68 D(4,3,1,18)     =    178.214766     0.000001     0.058486   178.273253
	   69 D(4,3,2,11)     =    101.086050     0.000000    -0.038775   101.047275
	   70 D(4,7,8,9)      =     -0.434312    -0.000000    -0.037769    -0.472081
	   71 D(4,7,8,17)     =    179.849353     0.000000     0.015151   179.864504
	   72 D(5,4,7,8)      =    179.627517     0.000000     0.019000   179.646517
	   73 D(5,4,7,19)     =     -0.369694    -0.000000    -0.004317    -0.374011
	   74 D(6,14,11,12)   =    -66.061146    -0.000000    -0.291984   -66.353130
	   75 D(6,14,11,13)   =     49.563063    -0.000001    -0.296243    49.266820
	   76 D(6,14,15,16)   =     -0.068909     0.000000     0.218066     0.149157
	   77 D(7,8,9,10)     =   -179.383541     0.000000     0.086510  -179.297031
	   78 D(8,9,1,18)     =   -178.739199    -0.000000    -0.007186  -178.746385
	   79 D(9,8,7,19)     =    179.562798    -0.000000    -0.013618   179.549180
	   80 D(10,9,1,18)    =      0.905711    -0.000001    -0.094627     0.811084
	   81 D(10,9,8,17)    =      0.343293     0.000000     0.035607     0.378899
	   82 D(11,14,15,16)  =   -178.638605    -0.000000    -0.193861  -178.832466
	   83 D(12,11,14,15)  =    112.541019     0.000000     0.110999   112.652018
	   84 D(13,11,14,15)  =   -131.834771     0.000000     0.106740  -131.728032
	   85 D(17,8,7,19)    =     -0.153537     0.000000     0.039302    -0.114234
	   86 R(3,15)         =      3.313700    -0.000218     0.000012     3.313713
	   87 R(4,14)         =      3.646680    -0.000044     0.000289     3.646969
	   88 R(4,15)         =      3.252460    -0.000001    -0.000512     3.251948
	   89 R(11,18)        =      3.404254     0.000442     0.000126     3.404380
	 ---------------------------------------------------------------------------
	Successfully symmetrized geometry.

  ==> Convergence Check <==

  Measures of convergence in internal coordinates in au.
  Criteria marked as inactive (o), active & met (*), and active & unmet ( ).
  --------------------------------------------------------------------------------------------- ~
   Step     Total Energy     Delta E     MAX Force     RMS Force      MAX Disp      RMS Disp    ~
  --------------------------------------------------------------------------------------------- ~
    Convergence Criteria             o    1.50e-05 *    1.00e-05 *    6.00e-05 *    4.00e-05 *  ~
  --------------------------------------------------------------------------------------------- ~
      1   -1908.87995384   -1.91e+03 o    1.41e-03      1.83e-04      5.17e-03      1.35e-03    ~
  ---------------------------------------------------------------------------------------------

	Writing optimization data to binary file.
	Structure for next step:
	Cartesian Geometry (in Angstrom)
	    C     1.2434482179  -0.5530767537  -0.6568869025
	    O     1.2467289847   1.7846935876  -0.1490522399
	    C     0.5778475225   0.6195165649  -0.3227933806
	    C    -0.8017250451   0.6055655386  -0.2316994688
	    H    -1.3109249580   1.5161662926   0.0099353036
	    O     1.3727040595   2.9340550625   3.2111493589
	    C    -1.5154322421  -0.5586353499  -0.4548268865
	    C    -0.8439694388  -1.7292073565  -0.7741381830
	    C     0.5362284676  -1.7181967442  -0.8761322294
	    H     1.0567798435  -2.6189359505  -1.1338821740
	    C     1.8589547139   2.0174259554   1.0885615833
	    H     2.7265262262   2.6348019062   0.9024361176
	    H     2.1961731174   1.1024001390   1.5557690305
	    C     1.0016986390   2.7546372899   2.0984367592
	    O    -0.1585823227   3.1883184663   1.6367018488
	    H    -0.6027527328   3.6483597073   2.3436328104
	   CL    -1.6782519866  -3.2191560124  -1.0615359208
	   CL     2.9703655763  -0.5691487970  -0.8256478188
	   CL    -3.2405448271  -0.5030029604  -0.3233355630
			--------------------------
			 OPTKING Finished Execution 
			--------------------------

    Structure for next step:
    Molecular point group: c1
    Full point group: C1

    Geometry (in Angstrom), charge = 0, multiplicity = 1:

    C            1.243413094767    -0.553073048278    -0.656928215660
    O            1.246693861598     1.784697292979    -0.149093553026
    C            0.577812399375     0.619520270270    -0.322834693779
    C           -0.801760168158     0.605569244025    -0.231740781979
    H           -1.310960081101     1.516169998009     0.009893990394
    O            1.372668936406     2.934058767892     3.211108045759
    C           -1.515467365177    -0.558631644442    -0.454868199673
    C           -0.844004561918    -1.729203651116    -0.774179496144
    C            0.536193344457    -1.718193038792    -0.876173542560
    H            1.056744720439    -2.618932245057    -1.133923487145
    C            1.858919590758     2.017429660846     1.088520270127
    H            2.726491103088     2.634805611654     0.902394804416
    H            2.196137994297     1.102403844371     1.555727717365
    C            1.001663515902     2.754640995339     2.098395446003
    O           -0.158617445765     3.188322171751     1.636660535645
    H           -0.602787855931     3.648363412714     2.343591497229
    CL          -1.678287109662    -3.219152306971    -1.061577233914
    CL           2.970330453245    -0.569145091556    -0.825689131919
    CL          -3.240579950230    -0.502999254987    -0.323376876155

gradient() will perform analytic gradient computation.

*** tstart() called on wr53
*** at Wed Sep 26 15:50:37 2018

   => Loading Basis Set <=

    Name: 6-31G(D)
    Role: ORBITAL
    Keyword: BASIS
    atoms 1, 3-4, 7-9, 11, 14 entry C          line   111 file /usr/local/hpc1/software_molmod/psi4/psi4conda/share/psi4/basis/6-31g_d_.gbs 
    atoms 2, 6, 15            entry O          line   145 file /usr/local/hpc1/software_molmod/psi4/psi4conda/share/psi4/basis/6-31g_d_.gbs 
    atoms 5, 10, 12-13, 16    entry H          line    44 file /usr/local/hpc1/software_molmod/psi4/psi4conda/share/psi4/basis/6-31g_d_.gbs 
    atoms 17-19               entry CL         line   340 file /usr/local/hpc1/software_molmod/psi4/psi4conda/share/psi4/basis/6-31g_d_.gbs 


         ---------------------------------------------------------
                                   SCF
            by Justin Turney, Rob Parrish, Andy Simmonett
                             and Daniel Smith
                              RHF Reference
                       16 Threads,  95367 MiB Core
         ---------------------------------------------------------

  ==> Geometry <==

    Molecular point group: c1
    Full point group: C1

    Geometry (in Angstrom), charge = 0, multiplicity = 1:

       Center              X                  Y                   Z               Mass       
    ------------   -----------------  -----------------  -----------------  -----------------
         C            1.243413094767    -0.553073048278    -0.656928215660    12.000000000000
         O            1.246693861598     1.784697292979    -0.149093553026    15.994914619560
         C            0.577812399375     0.619520270270    -0.322834693779    12.000000000000
         C           -0.801760168158     0.605569244025    -0.231740781979    12.000000000000
         H           -1.310960081101     1.516169998009     0.009893990394     1.007825032070
         O            1.372668936406     2.934058767892     3.211108045759    15.994914619560
         C           -1.515467365177    -0.558631644442    -0.454868199673    12.000000000000
         C           -0.844004561918    -1.729203651116    -0.774179496144    12.000000000000
         C            0.536193344457    -1.718193038792    -0.876173542560    12.000000000000
         H            1.056744720439    -2.618932245057    -1.133923487145     1.007825032070
         C            1.858919590758     2.017429660846     1.088520270127    12.000000000000
         H            2.726491103088     2.634805611654     0.902394804416     1.007825032070
         H            2.196137994297     1.102403844371     1.555727717365     1.007825032070
         C            1.001663515902     2.754640995339     2.098395446003    12.000000000000
         O           -0.158617445765     3.188322171751     1.636660535645    15.994914619560
         H           -0.602787855931     3.648363412714     2.343591497229     1.007825032070
         CL          -1.678287109662    -3.219152306971    -1.061577233914    34.968852682000
         CL           2.970330453245    -0.569145091556    -0.825689131919    34.968852682000
         CL          -3.240579950230    -0.502999254987    -0.323376876155    34.968852682000

  Running in c1 symmetry.

  Rotational constants: A =      0.02123  B =      0.01041  C =      0.00745 [cm^-1]
  Rotational constants: A =    636.43808  B =    312.01677  C =    223.20710 [MHz]
  Nuclear repulsion = 1187.288805224754242

  Charge       = 0
  Multiplicity = 1
  Electrons    = 128
  Nalpha       = 64
  Nbeta        = 64

  ==> Algorithm <==

  SCF Algorithm Type is DF.
  DIIS enabled.
  MOM disabled.
  Fractional occupation disabled.
  Guess Type is READ.
  Energy threshold   = 1.00e-08
  Density threshold  = 1.00e-08
  Integral threshold = 0.00e+00

  ==> Primary Basis <==

  Basis Set: 6-31G(D)
    Blend: 6-31G(D)
    Number of shells: 100
    Number of basis function: 232
    Number of Cartesian functions: 232
    Spherical Harmonics?: false
    Max angular momentum: 2

   => Loading Basis Set <=

    Name: (6-31G(D) AUX)
    Role: JKFIT
    Keyword: DF_BASIS_SCF
    atoms 1, 3-4, 7-9, 11, 14 entry C          line   121 file /usr/local/hpc1/software_molmod/psi4/psi4conda/share/psi4/basis/cc-pvdz-jkfit.gbs 
    atoms 2, 6, 15            entry O          line   221 file /usr/local/hpc1/software_molmod/psi4/psi4conda/share/psi4/basis/cc-pvdz-jkfit.gbs 
    atoms 5, 10, 12-13, 16    entry H          line    51 file /usr/local/hpc1/software_molmod/psi4/psi4conda/share/psi4/basis/cc-pvdz-jkfit.gbs 
    atoms 17-19               entry CL         line   667 file /usr/local/hpc1/software_molmod/psi4/psi4conda/share/psi4/basis/cc-pvdz-jkfit.gbs 

  Reading orbitals from file 180, no projection.

  ==> Pre-Iterations <==

   -------------------------------------------------------
    Irrep   Nso     Nmo     Nalpha   Nbeta   Ndocc  Nsocc
   -------------------------------------------------------
     A        232     232       0       0       0       0
   -------------------------------------------------------
    Total     232     232      64      64      64       0
   -------------------------------------------------------

  ==> Integral Setup <==

  ==> DiskDFJK: Density-Fitted J/K Matrices <==

    J tasked:                  Yes
    K tasked:                  Yes
    wK tasked:                  No
    OpenMP threads:             16
    Integrals threads:          16
    Memory (MB):             71525
    Algorithm:                Core
    Integral Cache:           NONE
    Schwarz Cutoff:          1E-12
    Fitting Condition:       1E-12

   => Auxiliary Basis Set <=

  Basis Set: (6-31G(D) AUX)
    Blend: CC-PVDZ-JKFIT
    Number of shells: 417
    Number of basis function: 1406
    Number of Cartesian functions: 1406
    Spherical Harmonics?: false
    Max angular momentum: 3

  Minimum eigenvalue in the overlap matrix is 3.6643483367E-04.
  Using Symmetric Orthogonalization.

  SCF Guess: Orbitals guess was supplied from a previous computation.

  ==> Iterations <==

                           Total Energy        Delta E     RMS |[F,P]|

   @DF-RHF iter   0: -1908.88071509795486   -1.90888e+03   9.34122e-05 
   @DF-RHF iter   1: -1908.87995202016873    7.63078e-04   9.86003e-06 
   @DF-RHF iter   2: -1908.87995348859135   -1.46842e-06   3.89795e-06 DIIS
   @DF-RHF iter   3: -1908.87995371913235   -2.30541e-07   2.13756e-06 DIIS
   @DF-RHF iter   4: -1908.87995378295250   -6.38202e-08   6.58882e-07 DIIS
   @DF-RHF iter   5: -1908.87995379004360   -7.09110e-09   2.24606e-07 DIIS
   @DF-RHF iter   6: -1908.87995379207155   -2.02795e-09   1.05564e-07 DIIS
   @DF-RHF iter   7: -1908.87995379226004   -1.88493e-10   3.15372e-08 DIIS
   @DF-RHF iter   8: -1908.87995379228983   -2.97860e-11   1.88845e-08 DIIS
   @DF-RHF iter   9: -1908.87995379229756   -7.73070e-12   9.02800e-09 DIIS

  ==> Post-Iterations <==

    Orbital Energies [Eh]
    ---------------------

    Doubly Occupied:                                                      

       1A   -104.850305     2A   -104.846821     3A   -104.846536  
       4A    -20.639396     5A    -20.616746     6A    -20.571759  
       7A    -11.404873     8A    -11.337780     9A    -11.335843  
      10A    -11.333424    11A    -11.329347    12A    -11.323555  
      13A    -11.283595    14A    -11.272943    15A    -10.583344  
      16A    -10.580087    17A    -10.579756    18A     -8.052786  
      19A     -8.049530    20A     -8.049338    21A     -8.049280  
      22A     -8.049202    23A     -8.046005    24A     -8.045981  
      25A     -8.045665    26A     -8.045661    27A     -1.502515  
      28A     -1.448536    29A     -1.390911    30A     -1.244157  
      31A     -1.187262    32A     -1.154073    33A     -1.114723  
      34A     -1.055497    35A     -1.021152    36A     -0.981885  
      37A     -0.882591    38A     -0.869770    39A     -0.825353  
      40A     -0.751098    41A     -0.740066    42A     -0.720029  
      43A     -0.709936    44A     -0.685379    45A     -0.672257  
      46A     -0.652334    47A     -0.639881    48A     -0.613287  
      49A     -0.609270    50A     -0.593424    51A     -0.575190  
      52A     -0.564232    53A     -0.549956    54A     -0.530571  
      55A     -0.514742    56A     -0.500672    57A     -0.495755  
      58A     -0.485561    59A     -0.474882    60A     -0.460798  
      61A     -0.459165    62A     -0.451451    63A     -0.366098  
      64A     -0.346781  

    Virtual:                                                              

      65A      0.096506    66A      0.105242    67A      0.148891  
      68A      0.171927    69A      0.202863    70A      0.209826  
      71A      0.234125    72A      0.251268    73A      0.287756  
      74A      0.294441    75A      0.313049    76A      0.322467  
      77A      0.329681    78A      0.386970    79A      0.407724  
      80A      0.428705    81A      0.436755    82A      0.450369  
      83A      0.472133    84A      0.482285    85A      0.524112  
      86A      0.535302    87A      0.561111    88A      0.577097  
      89A      0.585768    90A      0.598081    91A      0.605457  
      92A      0.618918    93A      0.628271    94A      0.637447  
      95A      0.650759    96A      0.660551    97A      0.664059  
      98A      0.679614    99A      0.704404   100A      0.709619  
     101A      0.735551   102A      0.745992   103A      0.779948  
     104A      0.789942   105A      0.804950   106A      0.816536  
     107A      0.825579   108A      0.840780   109A      0.848732  
     110A      0.876577   111A      0.887510   112A      0.901336  
     113A      0.933165   114A      0.954552   115A      0.957793  
     116A      0.967851   117A      0.994085   118A      1.003470  
     119A      1.030386   120A      1.040397   121A      1.045371  
     122A      1.054650   123A      1.072517   124A      1.090549  
     125A      1.103880   126A      1.114910   127A      1.121874  
     128A      1.129734   129A      1.130259   130A      1.140007  
     131A      1.142419   132A      1.151377   133A      1.160446  
     134A      1.178528   135A      1.188839   136A      1.203192  
     137A      1.216438   138A      1.229910   139A      1.247196  
     140A      1.261460   141A      1.285977   142A      1.293716  
     143A      1.305016   144A      1.327388   145A      1.343811  
     146A      1.354037   147A      1.362588   148A      1.406491  
     149A      1.412089   150A      1.422671   151A      1.450827  
     152A      1.456701   153A      1.474011   154A      1.552865  
     155A      1.572811   156A      1.595711   157A      1.619503  
     158A      1.660693   159A      1.670761   160A      1.680523  
     161A      1.694063   162A      1.740050   163A      1.761995  
     164A      1.779002   165A      1.795764   166A      1.805178  
     167A      1.827763   168A      1.891516   169A      1.895043  
     170A      1.958010   171A      2.008740   172A      2.032421  
     173A      2.041526   174A      2.055637   175A      2.080116  
     176A      2.084677   177A      2.120682   178A      2.129981  
     179A      2.184435   180A      2.204778   181A      2.225640  
     182A      2.244910   183A      2.265146   184A      2.330782  
     185A      2.347086   186A      2.354553   187A      2.376520  
     188A      2.385414   189A      2.414032   190A      2.423432  
     191A      2.452295   192A      2.483034   193A      2.521394  
     194A      2.581661   195A      2.583714   196A      2.598770  
     197A      2.643163   198A      2.658397   199A      2.747467  
     200A      2.815661   201A      2.839331   202A      2.881926  
     203A      2.892812   204A      2.973533   205A      2.993729  
     206A      3.018363   207A      3.071352   208A      3.075189  
     209A      3.084315   210A      3.113505   211A      3.169802  
     212A      3.186415   213A      3.260220   214A      3.374053  
     215A      3.400931   216A      3.489771   217A      3.511544  
     218A      3.710279   219A      4.234859   220A      4.426312  
     221A      4.452840   222A      4.479878   223A      4.518369  
     224A      4.587012   225A      4.632286   226A      4.667111  
     227A      4.725515   228A      4.749497   229A      4.802970  
     230A      4.863595   231A      4.951465   232A      5.143944  

    Final Occupation by Irrep:
              A 
    DOCC [    64 ]

  Energy converged.

  @DF-RHF Final Energy: -1908.87995379229756

   => Energetics <=

    Nuclear Repulsion Energy =           1187.2888052247542419
    One-Electron Energy =               -4992.3159166173154517
    Two-Electron Energy =                1896.1471576002634265
    Total Energy =                      -1908.8799537922975560



Properties will be evaluated at   0.000000,   0.000000,   0.000000 [a0]

Properties computed using the SCF density matrix

  Nuclear Dipole Moment: [e a0]
     X:     5.6070      Y:     9.8563      Z:     5.4940

  Electronic Dipole Moment: [e a0]
     X:    -5.5522      Y:    -9.5312      Z:    -5.4387

  Dipole Moment: [e a0]
     X:     0.0548      Y:     0.3252      Z:     0.0553     Total:     0.3343

  Dipole Moment: [D]
     X:     0.1393      Y:     0.8265      Z:     0.1405     Total:     0.8498


*** tstop() called on wr53 at Wed Sep 26 15:50:45 2018
Module time:
	user time   =      53.01 seconds =       0.88 minutes
	system time =       3.32 seconds =       0.06 minutes
	total time  =          8 seconds =       0.13 minutes
Total time:
	user time   =     185.40 seconds =       3.09 minutes
	system time =      10.32 seconds =       0.17 minutes
	total time  =         27 seconds =       0.45 minutes

*** tstart() called on wr53
*** at Wed Sep 26 15:50:45 2018


         ------------------------------------------------------------
                                   SCF GRAD                          
                          Rob Parrish, Justin Turney,                
                       Andy Simmonett, and Alex Sokolov              
         ------------------------------------------------------------

  ==> Geometry <==

    Molecular point group: c1
    Full point group: C1

    Geometry (in Angstrom), charge = 0, multiplicity = 1:

       Center              X                  Y                   Z               Mass       
    ------------   -----------------  -----------------  -----------------  -----------------
         C            1.243413094767    -0.553073048278    -0.656928215660    12.000000000000
         O            1.246693861598     1.784697292979    -0.149093553026    15.994914619560
         C            0.577812399375     0.619520270270    -0.322834693779    12.000000000000
         C           -0.801760168158     0.605569244025    -0.231740781979    12.000000000000
         H           -1.310960081101     1.516169998009     0.009893990394     1.007825032070
         O            1.372668936406     2.934058767892     3.211108045759    15.994914619560
         C           -1.515467365177    -0.558631644442    -0.454868199673    12.000000000000
         C           -0.844004561918    -1.729203651116    -0.774179496144    12.000000000000
         C            0.536193344457    -1.718193038792    -0.876173542560    12.000000000000
         H            1.056744720439    -2.618932245057    -1.133923487145     1.007825032070
         C            1.858919590758     2.017429660846     1.088520270127    12.000000000000
         H            2.726491103088     2.634805611654     0.902394804416     1.007825032070
         H            2.196137994297     1.102403844371     1.555727717365     1.007825032070
         C            1.001663515902     2.754640995339     2.098395446003    12.000000000000
         O           -0.158617445765     3.188322171751     1.636660535645    15.994914619560
         H           -0.602787855931     3.648363412714     2.343591497229     1.007825032070
         CL          -1.678287109662    -3.219152306971    -1.061577233914    34.968852682000
         CL           2.970330453245    -0.569145091556    -0.825689131919    34.968852682000
         CL          -3.240579950230    -0.502999254987    -0.323376876155    34.968852682000

  Nuclear repulsion = 1187.288805224754242

  ==> Basis Set <==

  Basis Set: 6-31G(D)
    Blend: 6-31G(D)
    Number of shells: 100
    Number of basis function: 232
    Number of Cartesian functions: 232
    Spherical Harmonics?: false
    Max angular momentum: 2

  ==> DFJKGrad: Density-Fitted SCF Gradients <==

    Gradient:                    1
    J tasked:                  Yes
    K tasked:                  Yes
    wK tasked:                  No
    OpenMP threads:             16
    Integrals threads:          16
    Memory (MB):             71525
    Schwarz Cutoff:          0E+00
    Fitting Condition:       1E-12

   => Auxiliary Basis Set <=

  Basis Set: (6-31G(D) AUX)
    Blend: CC-PVDZ-JKFIT
    Number of shells: 417
    Number of basis function: 1406
    Number of Cartesian functions: 1406
    Spherical Harmonics?: false
    Max angular momentum: 3


  -Total Gradient:
     Atom            X                  Y                   Z
    ------   -----------------  -----------------  -----------------
       1       -0.000070637088     0.000106124875     0.000038029856
       2       -0.000040546339    -0.000030655668    -0.000001145068
       3        0.000133966809     0.000043826077    -0.000130280497
       4       -0.000123980493    -0.000081382656     0.000061414695
       5        0.000022070346     0.000001336200    -0.000008954854
       6       -0.000125545531    -0.000367537416     0.000191427739
       7       -0.000080366527     0.000138506466     0.000019942137
       8        0.000175759423    -0.000050973719    -0.000000105184
       9       -0.000085061174    -0.000139748842     0.000009434583
      10       -0.000016892328     0.000026446117    -0.000006524763
      11       -0.000153896774    -0.000261043603     0.000237863852
      12       -0.000067332404     0.000041728615     0.000030886358
      13        0.000035770428    -0.000027249950    -0.000049543284
      14        0.000352557552     0.000966723125    -0.000448998556
      15       -0.000095308175    -0.000291690141     0.000078172785
      16        0.000060833075    -0.000025779532     0.000007710837
      17       -0.000039937277    -0.000029296375    -0.000015380374
      18        0.000058929899    -0.000015772680    -0.000004557643
      19        0.000059616708    -0.000003560973    -0.000009392639


*** tstop() called on wr53 at Wed Sep 26 15:50:55 2018
Module time:
	user time   =      72.13 seconds =       1.20 minutes
	system time =       1.64 seconds =       0.03 minutes
	total time  =         10 seconds =       0.17 minutes
Total time:
	user time   =     257.54 seconds =       4.29 minutes
	system time =      11.96 seconds =       0.20 minutes
	total time  =         37 seconds =       0.62 minutes

			-----------------------------------------
			 OPTKING 2.0: for geometry optimizations 
			  - R.A. King,  Bethel University        
			-----------------------------------------

	Previous internal coordinate definitions found.
	---Fragment 1 Geometry and Gradient---
	 C           2.3497102192       -1.0451565927       -1.2414144166
	 O           2.3559099700        3.3725891138       -0.2817459834
	 C           1.0919071910        1.1707236446       -0.6100691574
	 C          -1.5151071421        1.1443600257       -0.4379266118
	 H          -2.4773555244        2.8651460671        0.0186969322
	 O           2.5939683609        5.5445675291        6.0681147896
	 C          -2.8638182835       -1.0556608172       -0.8595763239
	 C          -1.5949374769       -3.2677213286       -1.4629872254
	 C           1.0132585753       -3.2469142867       -1.6557280403
	 H           1.9969581140       -4.9490647037       -2.1428048464
	 C           3.5128489296        3.8123895514        2.0570052006
	 H           5.1523214886        4.9790610194        1.7052790441
	 H           4.1500993592        2.0832413537        2.9398993232
	 C           1.8928697224        5.2055170756        3.9653927114
	 O          -0.2997435324        6.0250557280        3.0928401849
	 H          -1.1391039639        6.8944076833        4.4287460971
	 CL         -3.1715030096       -6.0833162402       -2.0060902410
	 CL          5.6131110808       -1.0755283529       -1.5603263302
	 CL         -6.1238086177       -0.9505308370       -0.6110937336
	            -0.0000706371        0.0001061249        0.0000380299
	            -0.0000405463       -0.0000306557       -0.0000011451
	             0.0001339668        0.0000438261       -0.0001302805
	            -0.0001239805       -0.0000813827        0.0000614147
	             0.0000220703        0.0000013362       -0.0000089549
	            -0.0001255455       -0.0003675374        0.0001914277
	            -0.0000803665        0.0001385065        0.0000199421
	             0.0001757594       -0.0000509737       -0.0000001052
	            -0.0000850612       -0.0001397488        0.0000094346
	            -0.0000168923        0.0000264461       -0.0000065248
	            -0.0001538968       -0.0002610436        0.0002378639
	            -0.0000673324        0.0000417286        0.0000308864
	             0.0000357704       -0.0000272500       -0.0000495433
	             0.0003525576        0.0009667231       -0.0004489986
	            -0.0000953082       -0.0002916901        0.0000781728
	             0.0000608331       -0.0000257795        0.0000077108
	            -0.0000399373       -0.0000292964       -0.0000153804
	             0.0000589299       -0.0000157727       -0.0000045576
	             0.0000596167       -0.0000035610       -0.0000093926

	---Fragment 1 Intrafragment Coordinates---
	 - Coordinate -           - BOHR/RAD -       - ANG/DEG -
	 R(1,3)           =         2.625032	       1.389107
	 R(1,9)           =         2.608735	       1.380483
	 R(1,18)          =         3.279087	       1.735218
	 R(2,3)           =         2.560022	       1.354705
	 R(2,11)          =         2.646071	       1.400240
	 R(3,4)           =         2.612824	       1.382647
	 R(4,5)           =         2.023742	       1.070918
	 R(4,7)           =         2.614747	       1.383665
	 R(6,14)          =         2.242306	       1.186577
	 R(7,8)           =         2.620568	       1.386745
	 R(7,19)          =         3.271136	       1.731011
	 R(8,9)           =         2.615391	       1.384005
	 R(8,17)          =         3.272322	       1.731638
	 R(9,10)          =         2.025395	       1.071793
	 R(11,12)         =         2.042720	       1.080961
	 R(11,13)         =         2.043415	       1.081328
	 R(11,14)         =         2.864800	       1.515987
	 R(14,15)         =         2.498108	       1.321942
	 R(15,16)         =         1.801373	       0.953245
	 B(1,3,2)         =         2.117999	     121.352391
	 B(1,3,4)         =         2.077640	     119.039998
	 B(1,9,8)         =         2.101221	     120.391114
	 B(1,9,10)        =         2.092866	     119.912384
	 B(2,3,4)         =         2.086190	     119.529908
	 B(2,11,12)       =         1.868847	     107.077059
	 B(2,11,13)       =         1.957991	     112.184629
	 B(2,11,14)       =         2.006850	     114.984009
	 B(3,1,9)         =         2.100376	     120.342677
	 B(3,1,18)        =         2.103744	     120.535679
	 B(3,2,11)        =         2.062571	     118.176622
	 B(3,4,5)         =         2.072259	     118.731680
	 B(3,4,7)         =         2.108922	     120.832353
	 B(4,7,8)         =         2.091632	     119.841710
	 B(4,7,19)        =         2.065489	     118.343802
	 B(5,4,7)         =         2.101988	     120.435037
	 B(6,14,11)       =         2.119294	     121.426591
	 B(6,14,15)       =         2.156000	     123.529707
	 B(7,8,9)         =         2.086471	     119.546005
	 B(7,8,17)        =         2.130852	     122.088817
	 B(8,7,19)        =         2.126064	     121.814485
	 B(8,9,10)        =         2.089072	     119.695031
	 B(9,1,18)        =         2.078973	     119.116356
	 B(9,8,17)        =         2.065848	     118.364350
	 B(11,14,15)      =         2.007752	     115.035691
	 B(12,11,13)      =         1.883257	     107.902679
	 B(12,11,14)      =         1.865870	     106.906494
	 B(13,11,14)      =         1.875518	     107.459243
	 B(14,15,16)      =         1.884168	     107.954869
	 D(1,3,2,11)      =        -1.434474	     -82.189307
	 D(1,3,4,5)       =        -3.123757	    -178.978088
	 D(1,3,4,7)       =         0.011738	       0.672534
	 D(1,9,8,7)       =         0.004562	       0.261399
	 D(1,9,8,17)      =         3.140499	     179.937329
	 D(2,3,1,9)       =        -3.100783	    -177.661765
	 D(2,3,1,18)      =         0.026081	       1.494335
	 D(2,3,4,5)       =        -0.037340	      -2.139451
	 D(2,3,4,7)       =         3.098154	     177.511171
	 D(2,11,14,6)     =         3.053383	     174.945979
	 D(2,11,14,15)    =        -0.105573	      -6.048873
	 D(3,1,9,8)       =         0.007359	       0.421616
	 D(3,1,9,10)      =         3.141228	     179.979086
	 D(3,2,11,12)     =         2.610974	     149.597792
	 D(3,2,11,13)     =         0.547985	      31.397251
	 D(3,2,11,14)     =        -1.602155	     -91.796702
	 D(3,4,7,8)       =         0.000032	       0.001842
	 D(3,4,7,19)      =         3.141267	     179.981314
	 D(4,3,1,9)       =        -0.015409	      -0.882847
	 D(4,3,1,18)      =         3.111455	     178.273253
	 D(4,3,2,11)      =         1.763608	     101.047275
	 D(4,7,8,9)       =        -0.008239	      -0.472081
	 D(4,7,8,17)      =         3.139228	     179.864504
	 D(5,4,7,8)       =         3.135423	     179.646517
	 D(5,4,7,19)      =        -0.006528	      -0.374011
	 D(6,14,11,12)    =        -1.158081	     -66.353130
	 D(6,14,11,13)    =         0.859868	      49.266820
	 D(6,14,15,16)    =         0.002603	       0.149157
	 D(7,8,9,10)      =        -3.129324	    -179.297031
	 D(8,9,1,18)      =        -3.119713	    -178.746385
	 D(9,8,7,19)      =         3.133724	     179.549180
	 D(10,9,1,18)     =         0.014156	       0.811084
	 D(10,9,8,17)     =         0.006613	       0.378899
	 D(11,14,15,16)   =        -3.121215	    -178.832466
	 D(12,11,14,15)   =         1.966149	     112.652018
	 D(13,11,14,15)   =        -2.299088	    -131.728032
	 D(17,8,7,19)     =        -0.001994	      -0.114234
	 R(3,15)          =         6.262010	       3.313713
	 R(4,14)          =         6.891772	       3.646969
	 R(4,15)          =         6.145292	       3.251948
	 R(11,18)         =         6.433345	       3.404380

	Current energy   :     -1908.8799537923

	Energy change for the previous step:
		Projected    :         0.0000031672
		Actual       :         0.0000000460

	Performing BFGS update.
	Previous computed or guess Hessian on step 1.
	Steps to be used in Hessian update: 1
	Taking RFO optimization step.
	Going to follow RFO solution 1.
	Using RFO vector 1.
	Norm of target step-size    0.02674
	Projected energy change by RFO approximation:        -0.0000108675

	Back-transformation to cartesian coordinates...
	Could not converge backtransformation.
	Using first guess instead.

	--- Internal Coordinate Step in ANG or DEG, aJ/ANG or AJ/DEG ---
	 ---------------------------------------------------------------------------
	   Coordinate                Previous        Force       Change         New 
	   ----------                --------       ------       ------       ------
	    1 R(1,3)          =      1.389107     0.000205     0.000992     1.390099
	    2 R(1,9)          =      1.380483    -0.000852     0.000105     1.380588
	    3 R(1,18)         =      1.735218    -0.000439    -0.000225     1.734993
	    4 R(2,3)          =      1.354705     0.000202     0.000331     1.355036
	    5 R(2,11)         =      1.400240    -0.000264    -0.000514     1.399727
	    6 R(3,4)          =      1.382647    -0.000492    -0.000635     1.382012
	    7 R(4,5)          =      1.070918     0.000094    -0.000554     1.070364
	    8 R(4,7)          =      1.383665     0.000497     0.000100     1.383765
	    9 R(6,14)         =      1.186577    -0.000698    -0.001108     1.185469
	   10 R(7,8)          =      1.386745    -0.000852     0.000054     1.386799
	   11 R(7,19)         =      1.731011     0.000496     0.000156     1.731166
	   12 R(8,9)          =      1.384005     0.000642     0.000381     1.384387
	   13 R(8,17)         =      1.731638    -0.000387     0.000234     1.731873
	   14 R(9,10)         =      1.071793     0.000238    -0.000420     1.071373
	   15 R(11,12)        =      1.080961     0.000293     0.000241     1.081201
	   16 R(11,13)        =      1.081328    -0.000106    -0.000235     1.081093
	   17 R(11,14)        =      1.515987     0.000727     0.000202     1.516189
	   18 R(14,15)        =      1.321942     0.000863    -0.000430     1.321512
	   19 R(15,16)        =      0.953245     0.000289    -0.000276     0.952969
	   20 B(1,3,2)        =    121.352391    -0.000003     0.002645   121.355036
	   21 B(1,3,4)        =    119.039998     0.000002     0.045194   119.085192
	   22 B(1,9,8)        =    120.391114     0.000002     0.022723   120.413838
	   23 B(1,9,10)       =    119.912384    -0.000001     0.006176   119.918561
	   24 B(2,3,4)        =    119.529908     0.000001    -0.039636   119.490272
	   25 B(2,11,12)      =    107.077059    -0.000002     0.012999   107.090058
	   26 B(2,11,13)      =    112.184629     0.000005     0.017622   112.202251
	   27 B(2,11,14)      =    114.984009    -0.000003    -0.018095   114.965914
	   28 B(3,1,9)        =    120.342677    -0.000002    -0.042243   120.300434
	   29 B(3,1,18)       =    120.535679     0.000001     0.020406   120.556085
	   30 B(3,2,11)       =    118.176622     0.000004     0.049854   118.226475
	   31 B(3,4,5)        =    118.731680     0.000002     0.060086   118.791765
	   32 B(3,4,7)        =    120.832353    -0.000000    -0.048449   120.783904
	   33 B(4,7,8)        =    119.841710    -0.000001     0.075983   119.917692
	   34 B(4,7,19)       =    118.343802     0.000000     0.000701   118.344503
	   35 B(5,4,7)        =    120.435037    -0.000001    -0.012261   120.422777
	   36 B(6,14,11)      =    121.426591     0.000004    -0.008342   121.418249
	   37 B(6,14,15)      =    123.529707    -0.000001     0.044084   123.573791
	   38 B(7,8,9)        =    119.546005    -0.000000    -0.052420   119.493585
	   39 B(7,8,17)       =    122.088817     0.000003     0.042769   122.131585
	   40 B(8,7,19)       =    121.814485     0.000001    -0.076707   121.737778
	   41 B(8,9,10)       =    119.695031    -0.000001    -0.029940   119.665091
	   42 B(9,1,18)       =    119.116356     0.000001     0.021567   119.137923
	   43 B(9,8,17)       =    118.364350    -0.000002     0.009205   118.373555
	   44 B(11,14,15)     =    115.035691    -0.000003    -0.058291   114.977400
	   45 B(12,11,13)     =    107.902679    -0.000001     0.001325   107.904005
	   46 B(12,11,14)     =    106.906494     0.000008     0.004261   106.910755
	   47 B(13,11,14)     =    107.459243    -0.000006    -0.017274   107.441969
	   48 B(14,15,16)     =    107.954869     0.000008    -0.081988   107.872882
	   49 D(1,3,2,11)     =    -82.189307    -0.000000     0.163087   -82.026221
	   50 D(1,3,4,5)      =   -178.978088     0.000000    -0.041473  -179.019561
	   51 D(1,3,4,7)      =      0.672534     0.000000    -0.143741     0.528793
	   52 D(1,9,8,7)      =      0.261399     0.000000     0.009938     0.271337
	   53 D(1,9,8,17)     =    179.937329     0.000000    -0.067885   179.869444
	   54 D(2,3,1,9)      =   -177.661765     0.000000    -0.082921  -177.744686
	   55 D(2,3,1,18)     =      1.494335     0.000000    -0.104020     1.390315
	   56 D(2,3,4,5)      =     -2.139451    -0.000000     0.129992    -2.009459
	   57 D(2,3,4,7)      =    177.511171    -0.000000     0.027723   177.538895
	   58 D(2,11,14,6)    =    174.945979     0.000003     0.646532   175.592511
	   59 D(2,11,14,15)   =     -6.048873    -0.000003    -0.300631    -6.349504
	   60 D(3,1,9,8)      =      0.421616    -0.000000    -0.025147     0.396469
	   61 D(3,1,9,10)     =    179.979086     0.000000    -0.160971   179.818115
	   62 D(3,2,11,12)    =    149.597792    -0.000000     0.063088   149.660880
	   63 D(3,2,11,13)    =     31.397251    -0.000000     0.043308    31.440559
	   64 D(3,2,11,14)    =    -91.796702     0.000001     0.066592   -91.730110
	   65 D(3,4,7,8)      =      0.001842    -0.000000     0.131002     0.132844
	   66 D(3,4,7,19)     =    179.981314    -0.000000     0.092956   180.074270
	   67 D(4,3,1,9)      =     -0.882847    -0.000000     0.090509    -0.792338
	   68 D(4,3,1,18)     =    178.273253    -0.000000     0.069410   178.342663
	   69 D(4,3,2,11)     =    101.047275     0.000000    -0.013722   101.033552
	   70 D(4,7,8,9)      =     -0.472081     0.000000    -0.062560    -0.534641
	   71 D(4,7,8,17)     =    179.864504    -0.000000     0.018427   179.882931
	   72 D(5,4,7,8)      =    179.646517    -0.000000     0.027315   179.673832
	   73 D(5,4,7,19)     =     -0.374011    -0.000000    -0.010731    -0.384743
	   74 D(6,14,11,12)   =    -66.353130     0.000004     0.654952   -65.698178
	   75 D(6,14,11,13)   =     49.266820     0.000004     0.650163    49.916983
	   76 D(6,14,15,16)   =      0.149157    -0.000003    -0.468502    -0.319345
	   77 D(7,8,9,10)     =   -179.297031    -0.000000     0.145259  -179.151772
	   78 D(8,9,1,18)     =   -178.746385     0.000000    -0.004346  -178.750731
	   79 D(9,8,7,19)     =    179.549180     0.000000    -0.023206   179.525975
	   80 D(10,9,1,18)    =      0.811084     0.000000    -0.140170     0.670914
	   81 D(10,9,8,17)    =      0.378899     0.000000     0.067436     0.446336
	   82 D(11,14,15,16)  =   -178.832466     0.000003     0.502264  -178.330203
	   83 D(12,11,14,15)  =    112.652018    -0.000003    -0.292212   112.359806
	   84 D(13,11,14,15)  =   -131.728032    -0.000003    -0.297000  -132.025032
	   85 D(17,8,7,19)    =     -0.114234    -0.000000     0.057782    -0.056453
	   86 R(3,15)         =      3.313713     0.000008     0.000331     3.314044
	   87 R(4,14)         =      3.646969    -0.000182    -0.001518     3.645451
	   88 R(4,15)         =      3.251948     0.000084     0.000245     3.252194
	   89 R(11,18)        =      3.404380    -0.000128     0.000015     3.404395
	 ---------------------------------------------------------------------------
	Successfully symmetrized geometry.

  ==> Convergence Check <==

  Measures of convergence in internal coordinates in au.
  Criteria marked as inactive (o), active & met (*), and active & unmet ( ).
  ---------------------------------------------------------------------------------------------
   Step     Total Energy     Delta E     MAX Force     RMS Force      MAX Disp      RMS Disp   
  ---------------------------------------------------------------------------------------------
    Convergence Criteria             o    1.50e-05 *    1.00e-05 *    6.00e-05 *    4.00e-05 *
  ---------------------------------------------------------------------------------------------
      2   -1908.87995379    4.60e-08 o    2.12e-04      6.82e-05      1.14e-02      2.84e-03    ~
  ---------------------------------------------------------------------------------------------

	Writing optimization data to binary file.
	Structure for next step:
	Cartesian Geometry (in Angstrom)
	    C     1.2437077407  -0.5537252090  -0.6566336624
	    O     1.2452566994   1.7850275476  -0.1477215305
	    C     0.5767868200   0.6194989545  -0.3232607939
	    C    -0.8020852526   0.6055151696  -0.2312040835
	    H    -1.3118842492   1.5151868574   0.0102121139
	    O     1.3758424030   2.9393583916   3.2092603339
	    C    -1.5150806506  -0.5590026469  -0.4555727244
	    C    -0.8442993620  -1.7301831184  -0.7743199402
	    C     0.5363123269  -1.7188674727  -0.8758554792
	    H     1.0563100201  -2.6189307478  -1.1353312473
	    C     1.8580357889   2.0169384664   1.0891914827
	    H     2.7245468717   2.6363069023   0.9033477645
	    H     2.1971064276   1.1021706878   1.5550174939
	    C     0.9999213247   2.7511231768   2.1008441100
	    O    -0.1581808237   3.1879344978   1.6378227208
	    H    -0.5990582355   3.6521396758   2.3437202810
	   CL    -1.6786242276  -3.2200337711  -1.0635095780
	   CL     2.9704744048  -0.5694872017  -0.8246491072
	   CL    -3.2404835502  -0.5043191713  -0.3254510591
			--------------------------
			 OPTKING Finished Execution 
			--------------------------

    Structure for next step:
    Molecular point group: c1
    Full point group: C1

    Geometry (in Angstrom), charge = 0, multiplicity = 1:

    C            1.243742693290    -0.553401744844    -0.656407218497
    O            1.245291651989     1.785351011805    -0.147495086566
    C            0.576821772576     0.619822418748    -0.323034349961
    C           -0.802050299968     0.605838633831    -0.230977639592
    H           -1.311849296545     1.515510321579     0.010438557833
    O            1.375877355653     2.939681855838     3.209486777773
    C           -1.515045697946    -0.558679182702    -0.455346280529
    C           -0.844264409426    -1.729859654182    -0.774093496295
    C            0.536347279505    -1.718544008493    -0.875629035254
    H            1.056344972674    -2.618607283606    -1.135104803405
    C            1.858070741505     2.017261930563     1.089417926649
    H            2.724581824280     2.636630366470     0.903574208404
    H            2.197141380182     1.102494152005     1.555243937850
    C            0.999956277327     2.751446640965     2.101070553893
    O           -0.158145871083     3.188257962040     1.638049164678
    H           -0.599023282924     3.652463140015     2.343946724869
    CL          -1.678589274990    -3.219710306923    -1.063283134043
    CL           2.970509357429    -0.569163737525    -0.824422663237
    CL          -3.240448597542    -0.503995707103    -0.325224615172

gradient() will perform analytic gradient computation.

*** tstart() called on wr53
*** at Wed Sep 26 15:50:55 2018

   => Loading Basis Set <=

    Name: 6-31G(D)
    Role: ORBITAL
    Keyword: BASIS
    atoms 1, 3-4, 7-9, 11, 14 entry C          line   111 file /usr/local/hpc1/software_molmod/psi4/psi4conda/share/psi4/basis/6-31g_d_.gbs 
[...]
	             0.0000003233        0.0000005187        0.0000004825
	            -0.0000005138       -0.0000001602        0.0000004064
	            -0.0000004798        0.0000001449       -0.0000004092

	---Fragment 1 Intrafragment Coordinates---
	 - Coordinate -           - BOHR/RAD -       - ANG/DEG -
	 R(1,3)           =         2.625306	       1.389252
	 R(1,9)           =         2.608341	       1.380275
	 R(1,18)          =         3.278830	       1.735082
	 R(2,3)           =         2.560096	       1.354744
	 R(2,11)          =         2.645860	       1.400129
	 R(3,4)           =         2.612461	       1.382455
	 R(4,5)           =         2.023765	       1.070930
	 R(4,7)           =         2.615081	       1.383841
	 R(6,14)          =         2.242185	       1.186513
	 R(7,8)           =         2.620138	       1.386518
	 R(7,19)          =         3.271362	       1.731130
	 R(8,9)           =         2.615770	       1.384206
	 R(8,17)          =         3.272139	       1.731541
	 R(9,10)          =         2.025473	       1.071834
	 R(11,12)         =         2.042744	       1.080974
	 R(11,13)         =         2.043462	       1.081353
	 R(11,14)         =         2.865101	       1.516146
	 R(14,15)         =         2.498337	       1.322063
	 R(15,16)         =         1.801408	       0.953264
	 B(1,3,2)         =         2.117680	     121.334146
	 B(1,3,4)         =         2.077775	     119.047738
	 B(1,9,8)         =         2.101322	     120.396902
	 B(1,9,10)        =         2.092895	     119.914024
	 B(2,3,4)         =         2.086326	     119.537663
	 B(2,11,12)       =         1.868930	     107.081816
	 B(2,11,13)       =         1.958135	     112.192863
	 B(2,11,14)       =         2.006880	     114.985764
	 B(3,1,9)         =         2.100234	     120.334526
	 B(3,1,18)        =         2.103666	     120.531199
	 B(3,2,11)        =         2.062618	     118.179333
	 B(3,4,5)         =         2.072510	     118.746065
	 B(3,4,7)         =         2.108837	     120.827474
	 B(4,7,8)         =         2.091677	     119.844267
	 B(4,7,19)        =         2.065389	     118.338063
	 B(5,4,7)         =         2.101824	     120.425672
	 B(6,14,11)       =         2.119460	     121.436111
	 B(6,14,15)       =         2.155969	     123.527935
	 B(7,8,9)         =         2.086413	     119.542661
	 B(7,8,17)        =         2.131081	     122.101930
	 B(8,7,19)        =         2.126119	     121.817668
	 B(8,9,10)        =         2.088945	     119.687737
	 B(9,1,18)        =         2.079192	     119.128914
	 B(9,8,17)        =         2.065679	     118.354670
	 B(11,14,15)      =         2.007497	     115.021128
	 B(12,11,13)      =         1.883136	     107.895730
	 B(12,11,14)      =         1.865907	     106.908599
	 B(13,11,14)      =         1.875333	     107.448654
	 B(14,15,16)      =         1.884658	     107.982963
	 D(1,3,2,11)      =        -1.435112	     -82.225836
	 D(1,3,4,5)       =        -3.123555	    -178.966525
	 D(1,3,4,7)       =         0.012424	       0.711833
	 D(1,9,8,7)       =         0.004720	       0.270439
	 D(1,9,8,17)      =         3.140971	     179.964408
	 D(2,3,1,9)       =        -3.100178	    -177.627104
	 D(2,3,1,18)      =         0.026587	       1.523316
	 D(2,3,4,5)       =        -0.038116	      -2.183888
	 D(2,3,4,7)       =         3.097863	     177.494470
	 D(2,11,14,6)     =         3.057915	     175.205621
	 D(2,11,14,15)    =        -0.107299	      -6.147771
	 D(3,1,9,8)       =         0.007315	       0.419113
	 D(3,1,9,10)      =         3.141542	     179.997076
	 D(3,2,11,12)     =         2.612098	     149.662211
	 D(3,2,11,13)     =         0.549124	      31.462491
	 D(3,2,11,14)     =        -1.600908	     -91.725252
	 D(3,4,7,8)       =        -0.000542	      -0.031075
	 D(3,4,7,19)      =         3.140781	     179.953507
	 D(4,3,1,9)       =        -0.015784	      -0.904358
	 D(4,3,1,18)      =         3.110981	     178.246062
	 D(4,3,2,11)      =         1.763955	     101.067195
	 D(4,7,8,9)       =        -0.008092	      -0.463655
	 D(4,7,8,17)      =         3.139049	     179.854270
	 D(5,4,7,8)       =         3.135342	     179.641884
	 D(5,4,7,19)      =        -0.006519	      -0.373533
	 D(6,14,11,12)    =        -1.153401	     -66.084985
	 D(6,14,11,13)    =         0.864336	      49.522805
	 D(6,14,15,16)    =        -0.000661	      -0.037856
	 D(7,8,9,10)      =        -3.129523	    -179.308477
	 D(8,9,1,18)      =        -3.119656	    -178.743148
	 D(9,8,7,19)      =         3.133779	     179.552315
	 D(10,9,1,18)     =         0.014570	       0.834815
	 D(10,9,8,17)     =         0.006728	       0.385492
	 D(11,14,15,16)   =        -3.118077	    -178.652629
	 D(12,11,14,15)   =         1.964571	     112.561624
	 D(13,11,14,15)   =        -2.300878	    -131.830586
	 D(17,8,7,19)     =        -0.002265	      -0.129760
	 R(3,15)          =         6.261438	       3.313410
	 R(4,14)          =         6.890917	       3.646516
	 R(4,15)          =         6.144963	       3.251774
	 R(11,18)         =         6.432987	       3.404190

	Current energy   :     -1908.8799565251

	Energy change for the previous step:
		Projected    :         0.0000000007
		Actual       :        -0.0000000019

	Performing BFGS update.
	Previous computed or guess Hessian on step 1.
	Denominators (dg)(dq) or (dq)(dq) are very small.
	 Skipping Hessian update for step 8.
	Denominators (dg)(dq) or (dq)(dq) are very small.
	 Skipping Hessian update for step 7.
	Denominators (dg)(dq) or (dq)(dq) are very small.
	 Skipping Hessian update for step 6.
	Denominators (dg)(dq) or (dq)(dq) are very small.
	 Skipping Hessian update for step 5.
	Steps to be used in Hessian update: 4 3
	Taking RFO optimization step.
	Going to follow RFO solution 1.
	Using RFO vector 1.
	Norm of target step-size    0.00014
	Projected energy change by RFO approximation:        -0.0000000007

	Back-transformation to cartesian coordinates...
	Successfully converged to displaced geometry.

	--- Internal Coordinate Step in ANG or DEG, aJ/ANG or AJ/DEG ---
	 ---------------------------------------------------------------------------
	   Coordinate                Previous        Force       Change         New 
	   ----------                --------       ------       ------       ------
	    1 R(1,3)          =      1.389252     0.000010     0.000002     1.389254
	    2 R(1,9)          =      1.380275    -0.000001    -0.000002     1.380273
	    3 R(1,18)         =      1.735082     0.000004    -0.000000     1.735082
	    4 R(2,3)          =      1.354744    -0.000005    -0.000001     1.354743
	    5 R(2,11)         =      1.400129    -0.000004    -0.000002     1.400127
	    6 R(3,4)          =      1.382455    -0.000011    -0.000003     1.382452
	    7 R(4,5)          =      1.070930    -0.000006    -0.000001     1.070930
	    8 R(4,7)          =      1.383841     0.000005     0.000002     1.383843
	    9 R(6,14)         =      1.186513    -0.000014    -0.000001     1.186513
	   10 R(7,8)          =      1.386518    -0.000003    -0.000002     1.386516
	   11 R(7,19)         =      1.731130    -0.000004    -0.000000     1.731130
	   12 R(8,9)          =      1.384206     0.000004     0.000002     1.384207
	   13 R(8,17)         =      1.731541     0.000006     0.000000     1.731542
	   14 R(9,10)         =      1.071834    -0.000005    -0.000000     1.071834
	   15 R(11,12)        =      1.080974    -0.000001    -0.000000     1.080973
	   16 R(11,13)        =      1.081353    -0.000003    -0.000000     1.081353
	   17 R(11,14)        =      1.516146    -0.000003    -0.000001     1.516145
	   18 R(14,15)        =      1.322063    -0.000013    -0.000001     1.322062
	   19 R(15,16)        =      0.953264    -0.000005    -0.000001     0.953264
	   20 B(1,3,2)        =    121.334146     0.000000    -0.000217   121.333930
	   21 B(1,3,4)        =    119.047738     0.000000     0.000056   119.047794
	   22 B(1,9,8)        =    120.396902    -0.000000    -0.000037   120.396865
	   23 B(1,9,10)       =    119.914024     0.000000     0.000120   119.914144
	   24 B(2,3,4)        =    119.537663    -0.000000     0.000012   119.537676
	   25 B(2,11,12)      =    107.081816    -0.000000    -0.000333   107.081483
	   26 B(2,11,13)      =    112.192863    -0.000000     0.000108   112.192971
	   27 B(2,11,14)      =    114.985764     0.000000    -0.000130   114.985634
	   28 B(3,1,9)        =    120.334526     0.000000     0.000004   120.334530
	   29 B(3,1,18)       =    120.531199    -0.000000    -0.000214   120.530985
	   30 B(3,2,11)       =    118.179333    -0.000000    -0.000480   118.178853
	   31 B(3,4,5)        =    118.746065     0.000000     0.000139   118.746204
	   32 B(3,4,7)        =    120.827474    -0.000000    -0.000081   120.827393
	   33 B(4,7,8)        =    119.844267     0.000000     0.000083   119.844350
	   34 B(4,7,19)       =    118.338063    -0.000000    -0.000088   118.337975
	   35 B(5,4,7)        =    120.425672    -0.000000    -0.000062   120.425610
	   36 B(6,14,11)      =    121.436111    -0.000000    -0.000084   121.436027
	   37 B(6,14,15)      =    123.527935     0.000000     0.000176   123.528111
	   38 B(7,8,9)        =    119.542661    -0.000000    -0.000045   119.542616
	   39 B(7,8,17)       =    122.101930     0.000000     0.000099   122.102029
	   40 B(8,7,19)       =    121.817668    -0.000000     0.000005   121.817673
	   41 B(8,9,10)       =    119.687737    -0.000000    -0.000086   119.687651
	   42 B(9,1,18)       =    119.128914     0.000000     0.000199   119.129113
	   43 B(9,8,17)       =    118.354670     0.000000    -0.000064   118.354606
	   44 B(11,14,15)     =    115.021128    -0.000000    -0.000092   115.021036
	   45 B(12,11,13)     =    107.895730     0.000000     0.000126   107.895856
	   46 B(12,11,14)     =    106.908599     0.000000     0.000100   106.908699
	   47 B(13,11,14)     =    107.448654     0.000000     0.000143   107.448798
	   48 B(14,15,16)     =    107.982963    -0.000000    -0.000270   107.982693
	   49 D(1,3,2,11)     =    -82.225836    -0.000000    -0.002352   -82.228188
	   50 D(1,3,4,5)      =   -178.966525     0.000000     0.001101  -178.965425
	   51 D(1,3,4,7)      =      0.711833     0.000000     0.000175     0.712007
	   52 D(1,9,8,7)      =      0.270439     0.000000     0.001366     0.271805
	   53 D(1,9,8,17)     =    179.964408    -0.000000    -0.000704   179.963704
	   54 D(2,3,1,9)      =   -177.627104     0.000000     0.002101  -177.625004
	   55 D(2,3,1,18)     =      1.523316     0.000000     0.001313     1.524628
	   56 D(2,3,4,5)      =     -2.183888    -0.000000    -0.001875    -2.185763
	   57 D(2,3,4,7)      =    177.494470    -0.000000    -0.002801   177.491669
	   58 D(2,11,14,6)    =    175.205621     0.000000     0.000222   175.205843
	   59 D(2,11,14,15)   =     -6.147771     0.000000     0.000218    -6.147553
	   60 D(3,1,9,8)      =      0.419113     0.000000     0.000151     0.419264
	   61 D(3,1,9,10)     =    179.997076    -0.000000    -0.000254   179.996822
	   62 D(3,2,11,12)    =    149.662211    -0.000000     0.000678   149.662889
	   63 D(3,2,11,13)    =     31.462491     0.000000     0.000672    31.463163
	   64 D(3,2,11,14)    =    -91.725252    -0.000000     0.000492   -91.724760
	   65 D(3,4,7,8)      =     -0.031075     0.000000     0.001341    -0.029735
	   66 D(3,4,7,19)     =    179.953507    -0.000000    -0.000458   179.953048
	   67 D(4,3,1,9)      =     -0.904358    -0.000000    -0.000922    -0.905281
	   68 D(4,3,1,18)     =    178.246062    -0.000000    -0.001710   178.244351
	   69 D(4,3,2,11)     =    101.067195     0.000000     0.000684   101.067879
	   70 D(4,7,8,9)      =     -0.463655    -0.000000    -0.002101    -0.465756
	   71 D(4,7,8,17)     =    179.854270     0.000000     0.000050   179.854320
	   72 D(5,4,7,8)      =    179.641884     0.000000     0.000400   179.642284
	   73 D(5,4,7,19)     =     -0.373533    -0.000000    -0.001400    -0.374933
	   74 D(6,14,11,12)   =    -66.084985    -0.000000    -0.000205   -66.085190
	   75 D(6,14,11,13)   =     49.522805    -0.000000     0.000060    49.522865
	   76 D(6,14,15,16)   =     -0.037856     0.000000     0.000127    -0.037730
	   77 D(7,8,9,10)     =   -179.308477     0.000000     0.001769  -179.306709
	   78 D(8,9,1,18)     =   -178.743148     0.000000     0.000931  -178.742217
	   79 D(9,8,7,19)     =    179.552315    -0.000000    -0.000238   179.552077
	   80 D(10,9,1,18)    =      0.834815     0.000000     0.000527     0.835341
	   81 D(10,9,8,17)    =      0.385492    -0.000000    -0.000302     0.385190
	   82 D(11,14,15,16)  =   -178.652629    -0.000000     0.000135  -178.652494
	   83 D(12,11,14,15)  =    112.561624    -0.000000    -0.000209   112.561414
	   84 D(13,11,14,15)  =   -131.830586     0.000000     0.000055  -131.830531
	   85 D(17,8,7,19)    =     -0.129760     0.000000     0.001913    -0.127847
	   86 R(3,15)         =      3.313410    -0.000006    -0.000020     3.313390
	   87 R(4,14)         =      3.646516    -0.000009    -0.000012     3.646504
	   88 R(4,15)         =      3.251774    -0.000001    -0.000021     3.251753
	   89 R(11,18)        =      3.404190     0.000001     0.000012     3.404202
	 ---------------------------------------------------------------------------
	Successfully symmetrized geometry.

  ==> Convergence Check <==

  Measures of convergence in internal coordinates in au.
  Criteria marked as inactive (o), active & met (*), and active & unmet ( ).
  ---------------------------------------------------------------------------------------------
   Step     Total Energy     Delta E     MAX Force     RMS Force      MAX Disp      RMS Disp   
  ---------------------------------------------------------------------------------------------
    Convergence Criteria             o    1.50e-05 *    1.00e-05 *    6.00e-05 *    4.00e-05 *
  ---------------------------------------------------------------------------------------------
      9   -1908.87995653   -1.91e-09 o    1.66e-06 *    5.37e-07 *    4.89e-05 *    1.48e-05 *  ~
  ---------------------------------------------------------------------------------------------


  **** Optimization is complete! (in 9 steps) ****

  ==> Optimization Summary <==

  Measures of convergence in internal coordinates in au.
  --------------------------------------------------------------------------------------------------------------- ~
   Step         Total Energy             Delta E       MAX Force       RMS Force        MAX Disp        RMS Disp  ~
  --------------------------------------------------------------------------------------------------------------- ~
      1   -1908.879953838282  -1908.879953838282      0.00141049      0.00018270      0.00517042      0.00135263  ~
      2   -1908.879953792298      0.000000045984      0.00021180      0.00006817      0.01143107      0.00283523  ~
      3   -1908.879942414378      0.000011377919      0.00215576      0.00031422      0.00726151      0.00206286  ~
      4   -1908.879956460751     -0.000014046373      0.00006993      0.00001751      0.00047575      0.00012270  ~
      5   -1908.879956512387     -0.000000051636      0.00002614      0.00000662      0.00020442      0.00005716  ~
      6   -1908.879956521313     -0.000000008926      0.00001477      0.00000390      0.00013525      0.00004160  ~
      7   -1908.879956524046     -0.000000002733      0.00000833      0.00000209      0.00010718      0.00003269  ~
      8   -1908.879956523142      0.000000000903      0.00000279      0.00000086      0.00007236      0.00002161  ~
      9   -1908.879956525050     -0.000000001908      0.00000166      0.00000054      0.00004889      0.00001476  ~
  --------------------------------------------------------------------------------------------------------------- ~

	Writing optimization data to binary file.
	Final energy is  -1908.8799565250501
	Final (previous) structure:
	Cartesian Geometry (in Angstrom)
	    C     1.2433848737  -0.5533270423  -0.6568229119
	    O     1.2467817586   1.7843107476  -0.1486271784
	    C     0.5776453511   0.6192101617  -0.3222054073
	    C    -0.8017712322   0.6054605562  -0.2316431980
	    H    -1.3111450217   1.5159264523   0.0101879391
	    O     1.3739307423   2.9367785746   3.2106597368
	    C    -1.5155494137  -0.5588563912  -0.4550324879
	    C    -0.8442387122  -1.7291627901  -0.7746507032
	    C     0.5361630165  -1.7180987136  -0.8766011088
	    H     1.0566516708  -2.6188918666  -1.1344613258
	    C     1.8589605369   2.0171724987   1.0888597281
	    H     2.7260394628   2.6353000030   0.9028586213
	    H     2.1970549037   1.1023495040   1.5558887858
	    C     1.0011544429   2.7533480826   2.0992619509
	    O    -0.1587550635   3.1878419277   1.6370119936
	    H    -0.6025828106   3.6496424312   2.3430358993
	   CL    -1.6781521926  -3.2191879243  -1.0621369315
	   CL     2.9701722757  -0.5690939315  -0.8255444673
	   CL    -3.2407720457  -0.5031125278  -0.3234604423
	Saving final (previous) structure.
	Removing binary optimization data file.
			--------------------------
			 OPTKING Finished Execution 
			--------------------------

    Final optimized geometry and variables:
    Molecular point group: c1
    Full point group: C1

    Geometry (in Angstrom), charge = 0, multiplicity = 1:

    C            1.243384873651    -0.553327042251    -0.656822911851
    O            1.246781758555     1.784310747571    -0.148627178379
    C            0.577645351133     0.619210161727    -0.322205407311
    C           -0.801771232164     0.605460556206    -0.231643198010
    H           -1.311145021654     1.515926452256     0.010187939104
    O            1.373930742304     2.936778574616     3.210659736837
    C           -1.515549413650    -0.558856391206    -0.455032487882
    C           -0.844238712188    -1.729162790057    -0.774650703247
    C            0.536163016532    -1.718098713638    -0.876601108753
    H            1.056651670815    -2.618891866566    -1.134461325835
    C            1.858960536947     2.017172498748     1.088859728105
    H            2.726039462849     2.635300003023     0.902858621287
    H            2.197054903682     1.102349504016     1.555888785795
    C            1.001154442913     2.753348082595     2.099261950920
    O           -0.158755063523     3.187841927737     1.637011993567
    H           -0.602582810620     3.649642431175     2.343035899296
    CL          -1.678152192567    -3.219187924273    -1.062136931510
    CL           2.970172275707    -0.569093931528    -0.825544467258
    CL          -3.240772045718    -0.503112527800    -0.323460442306

	Removing binary optimization data file.
	Cleaning optimization helper files.


  Variable Map:
  ----------------------------------------------------------------------------
  "CURRENT DIPOLE X"         =>       0.137301388386
  "CURRENT DIPOLE Y"         =>       0.820351108162
  "CURRENT DIPOLE Z"         =>       0.141653174017
  "CURRENT ENERGY"           =>   -1908.879956525050
  "CURRENT REFERENCE ENERGY" =>   -1908.879956525050
  "HF TOTAL ENERGY"          =>   -1908.879956525050
  "NUCLEAR REPULSION ENERGY" =>    1187.278851054972
  "ONE-ELECTRON ENERGY"      =>   -4992.296031374154
  "OPTIMIZATION ITERATIONS"  =>       9.000000000000
  "PCM POLARIZATION ENERGY"  =>       0.000000000000
  "SCF DIPOLE X"             =>       0.137301388386
  "SCF DIPOLE Y"             =>       0.820351108162
  "SCF DIPOLE Z"             =>       0.141653174017
  "SCF ITERATION ENERGY"     =>   -1908.879956525050
  "SCF ITERATIONS"           =>       4.000000000000
  "SCF N ITERS"              =>       4.000000000000
  "SCF TOTAL ENERGY"         =>   -1908.879956525050
  "TWO-ELECTRON ENERGY"      =>    1896.137223794132



    Psi4 stopped on: Wednesday, 26 September 2018 03:52PM
    Psi4 wall time for execution: 0:02:27.29

*** Psi4 exiting successfully. Buy a developer a beer!
