
    -----------------------------------------------------------------------
          Psi4: An Open-Source Ab Initio Electronic Structure Package
                               Psi4 1.2.1 release

                         Git: Rev {HEAD} 406f4de 


    R. M. Parrish, L. A. Burns, D. G. A. Smith, A. C. Simmonett,
    A. E. DePrince III, E. G. Hohenstein, U. Bozkaya, A. Yu. Sokolov,
    R. Di Remigio, R. M. Richard, J. F. Gonthier, A. M. James,
    H. R. McAlexander, A. Kumar, M. Saitow, X. Wang, B. P. Pritchard,
    P. Verma, H. F. Schaefer III, K. Patkowski, R. A. King, E. F. Valeev,
    F. A. Evangelista, J. M. Turney, T. D. Crawford, and C. D. Sherrill,
    J. Chem. Theory Comput. 13(7) pp 3185--3197 (2017).
    (doi: 10.1021/acs.jctc.7b00174)


                         Additional Contributions by
    P. Kraus, H. Kruse, M. H. Lechner, M. C. Schieber, and R. A. Shaw

    -----------------------------------------------------------------------


    Psi4 started on: Wednesday, 26 September 2018 03:52PM

    Process ID: 433883
    Host:       wr53
    PSIDATADIR: /usr/local/hpc1/software_molmod/psi4/psi4conda/share/psi4
    Memory:     500.0 MiB
    Threads:    16
    
  ==> Input File <==

--------------------------------------------------------------------------
memory 110 Gb

molecule conf2 {
    C            0.396650384427    -0.795507199289    -1.231870800271
    O           -1.438463790903    -1.643428447857     0.039524318233
    C           -0.356403261108    -0.833271162769    -0.065869920354
    C            0.048086836055    -0.082625645534     1.022676947815
    H           -0.537540433747    -0.119581508509     1.918714403778
    O           -3.075217743102    -0.188230971266     1.732930694947
    C            1.183774135614     0.704957708685     0.953609439542
    C            1.926779326584     0.745711995791    -0.216980459991
    C            1.528408800900    -0.008666737268    -1.306511402800
    H            2.105748076937     0.014786799795    -2.209226666129
    C           -2.664904311559    -1.172968714947    -0.431828043952
    H           -3.243460068553    -2.032149502007    -0.741018147019
    H           -2.552176865113    -0.523212257935    -1.291368102733
    C           -3.444323341238    -0.433684892593     0.635159113887
    O           -4.635475188827    -0.084241049281     0.164981922755
    H           -5.111522049714     0.378747309583     0.848232736218
    CL           3.355405475317     1.713626843670    -0.366836830771
    CL          -0.062785275168    -1.748262957397    -2.608162214193
    CL           1.635628040869     1.620521185508     2.351485543593
}
set globals {
  reference rhf
  g_convergence gau_tight
  basis 6-31G(d)
}
frequency('hf', dertype=1)
--------------------------------------------------------------------------

  Memory set to 102.445 GiB by Python driver.
gradient() will perform analytic gradient computation.

*** tstart() called on wr53
*** at Wed Sep 26 15:52:22 2018

   => Loading Basis Set <=

    Name: 6-31G(D)
    Role: ORBITAL
    Keyword: BASIS
    atoms 1, 3-4, 7-9, 11, 14 entry C          line   111 file /usr/local/hpc1/software_molmod/psi4/psi4conda/share/psi4/basis/6-31g_d_.gbs 
    atoms 2, 6, 15            entry O          line   145 file /usr/local/hpc1/software_molmod/psi4/psi4conda/share/psi4/basis/6-31g_d_.gbs 
    atoms 5, 10, 12-13, 16    entry H          line    44 file /usr/local/hpc1/software_molmod/psi4/psi4conda/share/psi4/basis/6-31g_d_.gbs 
    atoms 17-19               entry CL         line   340 file /usr/local/hpc1/software_molmod/psi4/psi4conda/share/psi4/basis/6-31g_d_.gbs 

    There are an even number of electrons - assuming singlet.
    Specify the multiplicity in the molecule input block.


         ---------------------------------------------------------
                                   SCF
            by Justin Turney, Rob Parrish, Andy Simmonett
                             and Daniel Smith
                              RHF Reference
                       16 Threads, 104904 MiB Core
         ---------------------------------------------------------

  ==> Geometry <==

    Molecular point group: c1
    Full point group: C1

    Geometry (in Angstrom), charge = 0, multiplicity = 1:

       Center              X                  Y                   Z               Mass       
    ------------   -----------------  -----------------  -----------------  -----------------
         C            0.396650384427    -0.795507199289    -1.231870800271    12.000000000000
         O           -1.438463790903    -1.643428447857     0.039524318233    15.994914619560
         C           -0.356403261108    -0.833271162769    -0.065869920354    12.000000000000
         C            0.048086836055    -0.082625645534     1.022676947815    12.000000000000
         H           -0.537540433747    -0.119581508509     1.918714403778     1.007825032070
         O           -3.075217743102    -0.188230971266     1.732930694947    15.994914619560
         C            1.183774135614     0.704957708685     0.953609439542    12.000000000000
         C            1.926779326584     0.745711995791    -0.216980459991    12.000000000000
         C            1.528408800900    -0.008666737268    -1.306511402800    12.000000000000
         H            2.105748076937     0.014786799795    -2.209226666129     1.007825032070
         C           -2.664904311559    -1.172968714947    -0.431828043952    12.000000000000
         H           -3.243460068553    -2.032149502007    -0.741018147019     1.007825032070
         H           -2.552176865113    -0.523212257935    -1.291368102733     1.007825032070
         C           -3.444323341238    -0.433684892593     0.635159113887    12.000000000000
         O           -4.635475188827    -0.084241049281     0.164981922755    15.994914619560
         H           -5.111522049714     0.378747309583     0.848232736218     1.007825032070
         CL           3.355405475317     1.713626843670    -0.366836830771    34.968852682000
         CL          -0.062785275168    -1.748262957397    -2.608162214193    34.968852682000
         CL           1.635628040869     1.620521185508     2.351485543593    34.968852682000

  Running in c1 symmetry.

  Rotational constants: A =      0.02131  B =      0.01037  C =      0.00740 [cm^-1]
  Rotational constants: A =    638.72514  B =    310.95616  C =    221.84183 [MHz]
  Nuclear repulsion = 1186.388415804890201

  Charge       = 0
  Multiplicity = 1
  Electrons    = 128
  Nalpha       = 64
  Nbeta        = 64

  ==> Algorithm <==

  SCF Algorithm Type is DF.
  DIIS enabled.
  MOM disabled.
  Fractional occupation disabled.
  Guess Type is SAD.
  Energy threshold   = 1.00e-08
  Density threshold  = 1.00e-08
  Integral threshold = 0.00e+00

  ==> Primary Basis <==

  Basis Set: 6-31G(D)
    Blend: 6-31G(D)
    Number of shells: 100
    Number of basis function: 232
    Number of Cartesian functions: 232
    Spherical Harmonics?: false
    Max angular momentum: 2

   => Loading Basis Set <=

    Name: (6-31G(D) AUX)
    Role: JKFIT
    Keyword: DF_BASIS_SCF
    atoms 1, 3-4, 7-9, 11, 14 entry C          line   121 file /usr/local/hpc1/software_molmod/psi4/psi4conda/share/psi4/basis/cc-pvdz-jkfit.gbs 
    atoms 2, 6, 15            entry O          line   221 file /usr/local/hpc1/software_molmod/psi4/psi4conda/share/psi4/basis/cc-pvdz-jkfit.gbs 
    atoms 5, 10, 12-13, 16    entry H          line    51 file /usr/local/hpc1/software_molmod/psi4/psi4conda/share/psi4/basis/cc-pvdz-jkfit.gbs 
    atoms 17-19               entry CL         line   667 file /usr/local/hpc1/software_molmod/psi4/psi4conda/share/psi4/basis/cc-pvdz-jkfit.gbs 

  ==> Pre-Iterations <==

   -------------------------------------------------------
    Irrep   Nso     Nmo     Nalpha   Nbeta   Ndocc  Nsocc
   -------------------------------------------------------
     A        232     232       0       0       0       0
   -------------------------------------------------------
    Total     232     232      64      64      64       0
   -------------------------------------------------------

  ==> Integral Setup <==

  ==> DiskDFJK: Density-Fitted J/K Matrices <==

    J tasked:                  Yes
    K tasked:                  Yes
    wK tasked:                  No
    OpenMP threads:             16
    Integrals threads:          16
    Memory (MB):             78678
    Algorithm:                Core
    Integral Cache:           NONE
    Schwarz Cutoff:          1E-12
    Fitting Condition:       1E-12

   => Auxiliary Basis Set <=

  Basis Set: (6-31G(D) AUX)
    Blend: CC-PVDZ-JKFIT
    Number of shells: 417
    Number of basis function: 1406
    Number of Cartesian functions: 1406
    Spherical Harmonics?: false
    Max angular momentum: 3

  Minimum eigenvalue in the overlap matrix is 3.6644055092E-04.
  Using Symmetric Orthogonalization.

  SCF Guess: Superposition of Atomic Densities via on-the-fly atomic UHF.

  ==> Iterations <==

                           Total Energy        Delta E     RMS |[F,P]|

   @DF-RHF iter   0: -1914.02228855672161   -1.91402e+03   4.47970e-02 
   @DF-RHF iter   1: -1908.43881277232435    5.58348e+00   6.84414e-03 
   @DF-RHF iter   2: -1908.76611582204555   -3.27303e-01   3.67720e-03 DIIS
   @DF-RHF iter   3: -1908.86690788955457   -1.00792e-01   1.34868e-03 DIIS
   @DF-RHF iter   4: -1908.88114490368594   -1.42370e-02   3.97167e-04 DIIS
   @DF-RHF iter   5: -1908.88245171973153   -1.30682e-03   1.69632e-04 DIIS
   @DF-RHF iter   6: -1908.88265642715987   -2.04707e-04   3.31872e-05 DIIS
   @DF-RHF iter   7: -1908.88268287290521   -2.64457e-05   1.71478e-05 DIIS
   @DF-RHF iter   8: -1908.88268580413501   -2.93123e-06   4.23600e-06 DIIS
   @DF-RHF iter   9: -1908.88268619634664   -3.92212e-07   2.75418e-06 DIIS
   @DF-RHF iter  10: -1908.88268629037407   -9.40274e-08   8.79543e-07 DIIS
   @DF-RHF iter  11: -1908.88268630996072   -1.95867e-08   2.87298e-07 DIIS
   @DF-RHF iter  12: -1908.88268631283859   -2.87787e-09   1.24297e-07 DIIS
   @DF-RHF iter  13: -1908.88268631314418   -3.05590e-10   4.37697e-08 DIIS
   @DF-RHF iter  14: -1908.88268631318897   -4.47926e-11   2.11172e-08 DIIS
   @DF-RHF iter  15: -1908.88268631319534   -6.36646e-12   6.61771e-09 DIIS

  ==> Post-Iterations <==

    Orbital Energies [Eh]
    ---------------------

    Doubly Occupied:                                                      

       1A   -104.847526     2A   -104.843103     3A   -104.841159  
       4A    -20.637780     5A    -20.613607     6A    -20.577752  
       7A    -11.405525     8A    -11.332825     9A    -11.330788  
      10A    -11.329358    11A    -11.325631    12A    -11.323743  
      13A    -11.279406    14A    -11.266805    15A    -10.580561  
      16A    -10.576330    17A    -10.574424    18A     -8.050004  
      19A     -8.046572    20A     -8.046511    21A     -8.045776  
      22A     -8.043871    23A     -8.042247    24A     -8.042246  
      25A     -8.040346    26A     -8.040314    27A     -1.501971  
      28A     -1.447204    29A     -1.392479    30A     -1.239787  
      31A     -1.183474    32A     -1.149601    33A     -1.110556  
      34A     -1.055038    35A     -1.019464    36A     -0.980816  
      37A     -0.880150    38A     -0.864780    39A     -0.812711  
      40A     -0.746832    41A     -0.740671    42A     -0.724586  
      43A     -0.704307    44A     -0.690734    45A     -0.670413  
      46A     -0.650778    47A     -0.639342    48A     -0.617214  
      49A     -0.604310    50A     -0.589205    51A     -0.572105  
      52A     -0.561344    53A     -0.543175    54A     -0.526770  
      55A     -0.504233    56A     -0.500840    57A     -0.496220  
      58A     -0.481717    59A     -0.472270    60A     -0.460550  
      61A     -0.455558    62A     -0.453049    63A     -0.361246  
      64A     -0.343159  

    Virtual:                                                              

      65A      0.101636    66A      0.109214    67A      0.153209  
      68A      0.173162    69A      0.206693    70A      0.213210  
      71A      0.237014    72A      0.243170    73A      0.294318  
      74A      0.302853    75A      0.310354    76A      0.325827  
      77A      0.334771    78A      0.392926    79A      0.409004  
      80A      0.431130    81A      0.441854    82A      0.457382  
      83A      0.478884    84A      0.488665    85A      0.528102  
      86A      0.529487    87A      0.550023    88A      0.571155  
      89A      0.586681    90A      0.602300    91A      0.607810  
      92A      0.623690    93A      0.631855    94A      0.637618  
      95A      0.656219    96A      0.665644    97A      0.669252  
      98A      0.683063    99A      0.709751   100A      0.715130  
     101A      0.738327   102A      0.766440   103A      0.777825  
     104A      0.784071   105A      0.807092   106A      0.817922  
     107A      0.822961   108A      0.846274   109A      0.855182  
     110A      0.881030   111A      0.892424   112A      0.911350  
     113A      0.933539   114A      0.940663   115A      0.958673  
     116A      0.964739   117A      0.993439   118A      1.005286  
     119A      1.028697   120A      1.047257   121A      1.056867  
     122A      1.065862   123A      1.084185   124A      1.089273  
     125A      1.113169   126A      1.120765   127A      1.125937  
     128A      1.134710   129A      1.135476   130A      1.139297  
     131A      1.146537   132A      1.161238   133A      1.186422  
     134A      1.187888   135A      1.189914   136A      1.199303  
     137A      1.215012   138A      1.224494   139A      1.236022  
     140A      1.265402   141A      1.282786   142A      1.292401  
     143A      1.301644   144A      1.326706   145A      1.342070  
     146A      1.366611   147A      1.395338   148A      1.417020  
     149A      1.426758   150A      1.435858   151A      1.457000  
     152A      1.476263   153A      1.507607   154A      1.540655  
     155A      1.563160   156A      1.598136   157A      1.613544  
     158A      1.658272   159A      1.668019   160A      1.677137  
     161A      1.689595   162A      1.741415   163A      1.765556  
     164A      1.787033   165A      1.797933   166A      1.817445  
     167A      1.832455   168A      1.889286   169A      1.889616  
     170A      1.951260   171A      2.008179   172A      2.029768  
     173A      2.045346   174A      2.059259   175A      2.069313  
     176A      2.085417   177A      2.118291   178A      2.138988  
     179A      2.197948   180A      2.225670   181A      2.229822  
     182A      2.232672   183A      2.266563   184A      2.337934  
     185A      2.354417   186A      2.370296   187A      2.383293  
     188A      2.390012   189A      2.416441   190A      2.428170  
     191A      2.453157   192A      2.474776   193A      2.520524  
     194A      2.583860   195A      2.586802   196A      2.600094  
     197A      2.618145   198A      2.744710   199A      2.762912  
     200A      2.778176   201A      2.838334   202A      2.846757  
     203A      2.892033   204A      2.971940   205A      2.987618  
     206A      3.025267   207A      3.069458   208A      3.075653  
     209A      3.083226   210A      3.119585   211A      3.172095  
     212A      3.193806   213A      3.292867   214A      3.371776  
     215A      3.418661   216A      3.495460   217A      3.506591  
     218A      3.715564   219A      4.220867   220A      4.430114  
     221A      4.457745   222A      4.479940   223A      4.515143  
     224A      4.579307   225A      4.667347   226A      4.675124  
     227A      4.728815   228A      4.751957   229A      4.802866  
     230A      4.861492   231A      4.939509   232A      5.146632  

    Final Occupation by Irrep:
              A 
    DOCC [    64 ]

  Energy converged.

  @DF-RHF Final Energy: -1908.88268631319534

   => Energetics <=

    Nuclear Repulsion Energy =           1186.3884158048902009
    One-Electron Energy =               -4990.8764668369394712
    Two-Electron Energy =                1895.6053647188537070
    Total Energy =                      -1908.8826863131953360



Properties will be evaluated at   0.000000,   0.000000,   0.000000 [a0]

Properties computed using the SCF density matrix

  Nuclear Dipole Moment: [e a0]
     X:   -13.3104      Y:    -3.5997      Z:    -0.8024

  Electronic Dipole Moment: [e a0]
     X:    12.1291      Y:     3.6533      Z:     0.1632

  Dipole Moment: [e a0]
     X:    -1.1813      Y:     0.0536      Z:    -0.6392     Total:     1.3442

  Dipole Moment: [D]
     X:    -3.0026      Y:     0.1361      Z:    -1.6246     Total:     3.4166


*** tstop() called on wr53 at Wed Sep 26 15:52:33 2018
Module time:
	user time   =      81.50 seconds =       1.36 minutes
	system time =       5.43 seconds =       0.09 minutes
	total time  =         11 seconds =       0.18 minutes
Total time:
	user time   =      81.50 seconds =       1.36 minutes
	system time =       5.43 seconds =       0.09 minutes
	total time  =         11 seconds =       0.18 minutes

*** tstart() called on wr53
*** at Wed Sep 26 15:52:33 2018


         ------------------------------------------------------------
                                   SCF GRAD                          
                          Rob Parrish, Justin Turney,                
                       Andy Simmonett, and Alex Sokolov              
         ------------------------------------------------------------

  ==> Geometry <==

    Molecular point group: c1
    Full point group: C1

    Geometry (in Angstrom), charge = 0, multiplicity = 1:

       Center              X                  Y                   Z               Mass       
    ------------   -----------------  -----------------  -----------------  -----------------
         C            0.396650384427    -0.795507199289    -1.231870800271    12.000000000000
         O           -1.438463790903    -1.643428447857     0.039524318233    15.994914619560
         C           -0.356403261108    -0.833271162769    -0.065869920354    12.000000000000
         C            0.048086836055    -0.082625645534     1.022676947815    12.000000000000
         H           -0.537540433747    -0.119581508509     1.918714403778     1.007825032070
         O           -3.075217743102    -0.188230971266     1.732930694947    15.994914619560
         C            1.183774135614     0.704957708685     0.953609439542    12.000000000000
         C            1.926779326584     0.745711995791    -0.216980459991    12.000000000000
         C            1.528408800900    -0.008666737268    -1.306511402800    12.000000000000
         H            2.105748076937     0.014786799795    -2.209226666129     1.007825032070
         C           -2.664904311559    -1.172968714947    -0.431828043952    12.000000000000
         H           -3.243460068553    -2.032149502007    -0.741018147019     1.007825032070
         H           -2.552176865113    -0.523212257935    -1.291368102733     1.007825032070
         C           -3.444323341238    -0.433684892593     0.635159113887    12.000000000000
         O           -4.635475188827    -0.084241049281     0.164981922755    15.994914619560
         H           -5.111522049714     0.378747309583     0.848232736218     1.007825032070
         CL           3.355405475317     1.713626843670    -0.366836830771    34.968852682000
         CL          -0.062785275168    -1.748262957397    -2.608162214193    34.968852682000
         CL           1.635628040869     1.620521185508     2.351485543593    34.968852682000

  Nuclear repulsion = 1186.388415804890201

  ==> Basis Set <==

  Basis Set: 6-31G(D)
    Blend: 6-31G(D)
    Number of shells: 100
    Number of basis function: 232
    Number of Cartesian functions: 232
    Spherical Harmonics?: false
    Max angular momentum: 2

  ==> DFJKGrad: Density-Fitted SCF Gradients <==

    Gradient:                    1
    J tasked:                  Yes
    K tasked:                  Yes
    wK tasked:                  No
    OpenMP threads:             16
    Integrals threads:          16
    Memory (MB):             78678
    Schwarz Cutoff:          0E+00
    Fitting Condition:       1E-12

   => Auxiliary Basis Set <=

  Basis Set: (6-31G(D) AUX)
    Blend: CC-PVDZ-JKFIT
    Number of shells: 417
    Number of basis function: 1406
    Number of Cartesian functions: 1406
    Spherical Harmonics?: false
    Max angular momentum: 3


  -Total Gradient:
     Atom            X                  Y                   Z
    ------   -----------------  -----------------  -----------------
       1        0.000000359409    -0.000000775847     0.000000060168
       2        0.000000384997    -0.000000084252     0.000000011181
       3       -0.000001075825     0.000000624565    -0.000000335808
       4       -0.000000519388     0.000000634525    -0.000000330501
       5       -0.000000293952     0.000000167023     0.000000018999
       6       -0.000000219742    -0.000000084017    -0.000000154145
       7        0.000002137233    -0.000002235198     0.000000958426
       8        0.000000522149    -0.000000425666     0.000000306236
       9       -0.000000410750     0.000000483886    -0.000000141908
      10        0.000000035553     0.000000152937    -0.000000180231
      11        0.000000087760    -0.000000149625     0.000000107236
      12       -0.000000089299     0.000000014073    -0.000000028056
      13        0.000000109758    -0.000000021028     0.000000075151
      14        0.000000098780     0.000000058995     0.000000014536
      15        0.000000030821     0.000000073123     0.000000140363
      16       -0.000000075149     0.000000015326     0.000000001316
      17       -0.000000431966     0.000000508014    -0.000000192249
      18       -0.000000031967     0.000000194513    -0.000000060134
      19       -0.000000618444     0.000000848693    -0.000000270618


*** tstop() called on wr53 at Wed Sep 26 15:52:42 2018
Module time:
	user time   =      67.27 seconds =       1.12 minutes
	system time =       2.20 seconds =       0.04 minutes
	total time  =          9 seconds =       0.15 minutes
Total time:
	user time   =     148.78 seconds =       2.48 minutes
	system time =       7.63 seconds =       0.13 minutes
	total time  =         20 seconds =       0.33 minutes

  Based on options and gradient (rms=6.33E-07), recommend projecting translations and projecting rotations.
hessian() will perform frequency computation by finite difference of analytic gradients.

-------------------------------------------------------------

  Using finite-differences of gradients to determine vibrational frequencies and 
  normal modes.  Resulting frequencies are only valid at stationary points.
	Generating geometries for use with 3-point formula.
	Displacement size will be 5.00e-03.
	Number of atoms is 19.
	Number of irreps is 1.
	Number of SALCS is 51.
	Translations projected? 1. Rotations projected? 1.
	Index of salcs per irrep:
	 1 :  0  1  2  3  4  5  6  7  8  9  10  11  12  13  14  15  16  17  18  19  20  21  22  23  24  25  26  27  28  29  30  31  32  33  34  35  36  37  38  39  40  41  42  43  44  45  46  47  48  49  50 
	Number of SALC's per irrep:
		 Irrep 1: 51
	Number of geometries (including reference) is 103.
	Number of displacements per irrep:
	  Irrep 1: 102

  //>>>>>>>>>>>>>>>>>>>>>>>>>>>>>>>>>>>//
  //   Loading displacement 1 of 103   //
  //<<<<<<<<<<<<<<<<<<<<<<<<<<<<<<<<<<<//
gradient() will perform analytic gradient computation.

*** tstart() called on wr53
*** at Wed Sep 26 15:52:42 2018

   => Loading Basis Set <=

    Name: 6-31G(D)
    Role: ORBITAL
    Keyword: BASIS
    atoms 1, 3-4, 7-9, 11, 14 entry C          line   111 file /usr/local/hpc1/software_molmod/psi4/psi4conda/share/psi4/basis/6-31g_d_.gbs 
    atoms 2, 6, 15            entry O          line   145 file /usr/local/hpc1/software_molmod/psi4/psi4conda/share/psi4/basis/6-31g_d_.gbs 
    atoms 5, 10, 12-13, 16    entry H          line    44 file /usr/local/hpc1/software_molmod/psi4/psi4conda/share/psi4/basis/6-31g_d_.gbs 
    atoms 17-19               entry CL         line   340 file /usr/local/hpc1/software_molmod/psi4/psi4conda/share/psi4/basis/6-31g_d_.gbs 


         ---------------------------------------------------------
                                   SCF
            by Justin Turney, Rob Parrish, Andy Simmonett
                             and Daniel Smith
                              RHF Reference
                       16 Threads, 104904 MiB Core
         ---------------------------------------------------------

  ==> Geometry <==

    Molecular point group: c1
    Full point group: C1

    Geometry (in Angstrom), charge = 0, multiplicity = 1:

       Center              X                  Y                   Z               Mass       
    ------------   -----------------  -----------------  -----------------  -----------------
         C            0.395909929575    -0.795509509427    -1.231866025321    12.000000000000
         O           -1.438421385984    -1.643433071363     0.039520298024    15.994914619560
         C           -0.356362877445    -0.833272530482    -0.065869665347    12.000000000000
         C            0.048118052527    -0.082622484283     1.022677486128    12.000000000000
         H           -0.537514605602    -0.119577645858     1.918711449346     1.007825032070
         O           -3.075190546307    -0.188236015447     1.732912336897    15.994914619560
         C            1.183803181821     0.704964409086     0.953614649125    12.000000000000
         C            1.926815436934     0.745717707184    -0.216970801036    12.000000000000
         C            1.528454096793    -0.008665537565    -1.306501978558    12.000000000000
         H            2.105798846710     0.014787251182    -2.209213760463     1.007825032070
         C           -2.664860558213    -1.172978763418    -0.431840987409    12.000000000000
         H           -3.243411582980    -2.032162364599    -0.741032125496     1.007825032070
         H           -2.552129966979    -0.523224458787    -1.291382260816     1.007825032070
         C           -3.444288585069    -0.433694376236     0.635139206767    12.000000000000
         O           -4.635438692724    -0.084255838167     0.164953664722    15.994914619560
         H           -5.111491280682     0.378732958361     0.848200191344     1.007825032070
         CL           3.355439318035     1.713636822195    -0.366821228642    34.968852682000
         CL          -0.062726243153    -1.748270822421    -2.608157466989    34.968852682000
         CL           1.635645474311     1.620533479191     2.351490843504    34.968852682000

  Running in c1 symmetry.

  Rotational constants: A =      0.02131  B =      0.01037  C =      0.00740 [cm^-1]
  Rotational constants: A =    638.73138  B =    310.95628  C =    221.84247 [MHz]
  Nuclear repulsion = 1186.391860157621522

  Charge       = 0
  Multiplicity = 1
  Electrons    = 128
  Nalpha       = 64
  Nbeta        = 64

  ==> Algorithm <==

  SCF Algorithm Type is DF.
  DIIS enabled.
  MOM disabled.
  Fractional occupation disabled.
  Guess Type is SAD.
  Energy threshold   = 1.00e-08
  Density threshold  = 1.00e-08
  Integral threshold = 0.00e+00

  ==> Primary Basis <==

  Basis Set: 6-31G(D)
    Blend: 6-31G(D)
    Number of shells: 100
    Number of basis function: 232
    Number of Cartesian functions: 232
    Spherical Harmonics?: false
    Max angular momentum: 2

   => Loading Basis Set <=

    Name: (6-31G(D) AUX)
    Role: JKFIT
    Keyword: DF_BASIS_SCF
    atoms 1, 3-4, 7-9, 11, 14 entry C          line   121 file /usr/local/hpc1/software_molmod/psi4/psi4conda/share/psi4/basis/cc-pvdz-jkfit.gbs 
    atoms 2, 6, 15            entry O          line   221 file /usr/local/hpc1/software_molmod/psi4/psi4conda/share/psi4/basis/cc-pvdz-jkfit.gbs 
    atoms 5, 10, 12-13, 16    entry H          line    51 file /usr/local/hpc1/software_molmod/psi4/psi4conda/share/psi4/basis/cc-pvdz-jkfit.gbs 
    atoms 17-19               entry CL         line   667 file /usr/local/hpc1/software_molmod/psi4/psi4conda/share/psi4/basis/cc-pvdz-jkfit.gbs 

  ==> Pre-Iterations <==

   -------------------------------------------------------
    Irrep   Nso     Nmo     Nalpha   Nbeta   Ndocc  Nsocc
   -------------------------------------------------------
     A        232     232       0       0       0       0
   -------------------------------------------------------
    Total     232     232      64      64      64       0
   -------------------------------------------------------

  ==> Integral Setup <==

  ==> DiskDFJK: Density-Fitted J/K Matrices <==

    J tasked:                  Yes
    K tasked:                  Yes
    wK tasked:                  No
    OpenMP threads:             16
    Integrals threads:          16
    Memory (MB):             78678
    Algorithm:                Core
    Integral Cache:           NONE
    Schwarz Cutoff:          1E-12
    Fitting Condition:       1E-12

   => Auxiliary Basis Set <=

  Basis Set: (6-31G(D) AUX)
    Blend: CC-PVDZ-JKFIT
    Number of shells: 417
    Number of basis function: 1406
    Number of Cartesian functions: 1406
    Spherical Harmonics?: false
    Max angular momentum: 3

  Minimum eigenvalue in the overlap matrix is 3.6657914458E-04.
  Using Symmetric Orthogonalization.

  SCF Guess: Superposition of Atomic Densities via on-the-fly atomic UHF.

  ==> Iterations <==

                           Total Energy        Delta E     RMS |[F,P]|

   @DF-RHF iter   0: -1913.79547317601691   -1.91380e+03   4.91210e-02 
   @DF-RHF iter   1: -1908.43828239620939    5.35719e+00   7.70489e-03 
   @DF-RHF iter   2: -1908.76819568037217   -3.29913e-01   4.64163e-03 DIIS
   @DF-RHF iter   3: -1908.86649886431746   -9.83032e-02   1.22640e-03 DIIS
   @DF-RHF iter   4: -1908.88099284563168   -1.44940e-02   4.07908e-04 DIIS
   @DF-RHF iter   5: -1908.88234971756219   -1.35687e-03   1.48195e-04 DIIS
   @DF-RHF iter   6: -1908.88263134981253   -2.81632e-04   4.09749e-05 DIIS
   @DF-RHF iter   7: -1908.88267777197439   -4.64222e-05   1.37425e-05 DIIS
   @DF-RHF iter   8: -1908.88268436731596   -6.59534e-06   5.95832e-06 DIIS
   @DF-RHF iter   9: -1908.88268543345225   -1.06614e-06   3.49512e-06 DIIS
   @DF-RHF iter  10: -1908.88268567366185   -2.40210e-07   1.30378e-06 DIIS
   @DF-RHF iter  11: -1908.88268570806599   -3.44041e-08   5.03491e-07 DIIS
   @DF-RHF iter  12: -1908.88268571210733   -4.04134e-09   1.98533e-07 DIIS
   @DF-RHF iter  13: -1908.88268571270191   -5.94582e-10   6.77658e-08 DIIS
   @DF-RHF iter  14: -1908.88268571279855   -9.66338e-11   2.52957e-08 DIIS
   @DF-RHF iter  15: -1908.88268571281355   -1.50067e-11   1.26935e-08 DIIS
   @DF-RHF iter  16: -1908.88268571281856   -5.00222e-12   4.18190e-09 DIIS

  ==> Post-Iterations <==

    Orbital Energies [Eh]
    ---------------------

    Doubly Occupied:                                                      

       1A   -104.847552     2A   -104.843099     3A   -104.841156  
       4A    -20.637777     5A    -20.613578     6A    -20.577750  
       7A    -11.405522     8A    -11.332776     9A    -11.330786  
      10A    -11.329356    11A    -11.325627    12A    -11.323737  
      13A    -11.279462    14A    -11.266809    15A    -10.580589  
      16A    -10.576326    17A    -10.574422    18A     -8.050032  
      19A     -8.046599    20A     -8.046538    21A     -8.045771  
      22A     -8.043869    23A     -8.042242    24A     -8.042241  
      25A     -8.040343    26A     -8.040311    27A     -1.501969  
      28A     -1.447198    29A     -1.392477    30A     -1.239765  
      31A     -1.183503    32A     -1.149598    33A     -1.110576  
      34A     -1.055001    35A     -1.019412    36A     -0.980854  
      37A     -0.880167    38A     -0.864795    39A     -0.812664  
      40A     -0.746827    41A     -0.740647    42A     -0.724584  
      43A     -0.704298    44A     -0.690728    45A     -0.670417  
      46A     -0.650773    47A     -0.639325    48A     -0.617210  
      49A     -0.604321    50A     -0.589185    51A     -0.572108  
      52A     -0.561366    53A     -0.543159    54A     -0.526786  
      55A     -0.504231    56A     -0.500859    57A     -0.496221  
      58A     -0.481724    59A     -0.472273    60A     -0.460546  
      61A     -0.455557    62A     -0.453039    63A     -0.361180  
      64A     -0.343192  

    Virtual:                                                              

      65A      0.101565    66A      0.109271    67A      0.153239  
      68A      0.173167    69A      0.206721    70A      0.213214  
      71A      0.237008    72A      0.243173    73A      0.294320  
      74A      0.302843    75A      0.310353    76A      0.325804  
      77A      0.334782    78A      0.392910    79A      0.409018  
      80A      0.431177    81A      0.441744    82A      0.457360  
      83A      0.478873    84A      0.488687    85A      0.528103  
      86A      0.529490    87A      0.550030    88A      0.571154  
      89A      0.586680    90A      0.602302    91A      0.607801  
      92A      0.623721    93A      0.631878    94A      0.637600  
      95A      0.656221    96A      0.665636    97A      0.669253  
      98A      0.683019    99A      0.709740   100A      0.715206  
     101A      0.738355   102A      0.766432   103A      0.777836  
     104A      0.784076   105A      0.807038   106A      0.817924  
     107A      0.822945   108A      0.846267   109A      0.855159  
     110A      0.881048   111A      0.892465   112A      0.911360  
     113A      0.933558   114A      0.940650   115A      0.958675  
     116A      0.964743   117A      0.993416   118A      1.005277  
     119A      1.028643   120A      1.047200   121A      1.056994  
     122A      1.065857   123A      1.084149   124A      1.089262  
     125A      1.113178   126A      1.120755   127A      1.125993  
     128A      1.134706   129A      1.135457   130A      1.139299  
     131A      1.146539   132A      1.161241   133A      1.186413  
     134A      1.187875   135A      1.189905   136A      1.199306  
     137A      1.215019   138A      1.224486   139A      1.235963  
     140A      1.265403   141A      1.282832   142A      1.292374  
     143A      1.301705   144A      1.326719   145A      1.342083  
     146A      1.366628   147A      1.395322   148A      1.417007  
     149A      1.426721   150A      1.435905   151A      1.457010  
     152A      1.476286   153A      1.507605   154A      1.540629  
     155A      1.563161   156A      1.598083   157A      1.613513  
     158A      1.658282   159A      1.667913   160A      1.677140  
     161A      1.689614   162A      1.741417   163A      1.765573  
     164A      1.787092   165A      1.797977   166A      1.817426  
     167A      1.832431   168A      1.889269   169A      1.889651  
     170A      1.951269   171A      2.008144   172A      2.029812  
     173A      2.045253   174A      2.059290   175A      2.069349  
     176A      2.085415   177A      2.118305   178A      2.138938  
     179A      2.197998   180A      2.225707   181A      2.229843  
     182A      2.232703   183A      2.266583   184A      2.337996  
     185A      2.354461   186A      2.370279   187A      2.383297  
     188A      2.389902   189A      2.416337   190A      2.428051  
     191A      2.453214   192A      2.474771   193A      2.520502  
     194A      2.583826   195A      2.586764   196A      2.599896  
     197A      2.618192   198A      2.744705   199A      2.762941  
     200A      2.778189   201A      2.838366   202A      2.846862  
     203A      2.891901   204A      2.971893   205A      2.987657  
     206A      3.025361   207A      3.069447   208A      3.075402  
     209A      3.083017   210A      3.119570   211A      3.172062  
     212A      3.193849   213A      3.292893   214A      3.371805  
     215A      3.418615   216A      3.495565   217A      3.506601  
     218A      3.715520   219A      4.220857   220A      4.430117  
     221A      4.457700   222A      4.479884   223A      4.515085  
     224A      4.579324   225A      4.667328   226A      4.675115  
     227A      4.728814   228A      4.751952   229A      4.802967  
     230A      4.861547   231A      4.939497   232A      5.146651  

    Final Occupation by Irrep:
              A 
    DOCC [    64 ]

  Energy converged.

  @DF-RHF Final Energy: -1908.88268571281856

   => Energetics <=

    Nuclear Repulsion Energy =           1186.3918601576215224
    One-Electron Energy =               -4990.8834847779726260
    Two-Electron Energy =                1895.6089389075325471
    Total Energy =                      -1908.8826857128185566



Properties will be evaluated at   0.000000,   0.000000,   0.000000 [a0]

Properties computed using the SCF density matrix

  Nuclear Dipole Moment: [e a0]
     X:   -13.3103      Y:    -3.5998      Z:    -0.8024

  Electronic Dipole Moment: [e a0]
     X:    12.1291      Y:     3.6531      Z:     0.1630

  Dipole Moment: [e a0]
     X:    -1.1813      Y:     0.0533      Z:    -0.6394     Total:     1.3443

  Dipole Moment: [D]
     X:    -3.0025      Y:     0.1355      Z:    -1.6253     Total:     3.4169


*** tstop() called on wr53 at Wed Sep 26 15:52:56 2018
Module time:
	user time   =      92.21 seconds =       1.54 minutes
	system time =       6.36 seconds =       0.11 minutes
	total time  =         14 seconds =       0.23 minutes
Total time:
	user time   =     241.50 seconds =       4.03 minutes
	system time =      14.00 seconds =       0.23 minutes
	total time  =         34 seconds =       0.57 minutes

*** tstart() called on wr53
*** at Wed Sep 26 15:52:56 2018


         ------------------------------------------------------------
                                   SCF GRAD                          
                          Rob Parrish, Justin Turney,                
                       Andy Simmonett, and Alex Sokolov              
         ------------------------------------------------------------

  ==> Geometry <==

    Molecular point group: c1
    Full point group: C1

    Geometry (in Angstrom), charge = 0, multiplicity = 1:

       Center              X                  Y                   Z               Mass       
    ------------   -----------------  -----------------  -----------------  -----------------
         C            0.395909929575    -0.795509509427    -1.231866025321    12.000000000000
         O           -1.438421385984    -1.643433071363     0.039520298024    15.994914619560
         C           -0.356362877445    -0.833272530482    -0.065869665347    12.000000000000
         C            0.048118052527    -0.082622484283     1.022677486128    12.000000000000
         H           -0.537514605602    -0.119577645858     1.918711449346     1.007825032070
         O           -3.075190546307    -0.188236015447     1.732912336897    15.994914619560
         C            1.183803181821     0.704964409086     0.953614649125    12.000000000000
         C            1.926815436934     0.745717707184    -0.216970801036    12.000000000000
         C            1.528454096793    -0.008665537565    -1.306501978558    12.000000000000
         H            2.105798846710     0.014787251182    -2.209213760463     1.007825032070
         C           -2.664860558213    -1.172978763418    -0.431840987409    12.000000000000
         H           -3.243411582980    -2.032162364599    -0.741032125496     1.007825032070
         H           -2.552129966979    -0.523224458787    -1.291382260816     1.007825032070
         C           -3.444288585069    -0.433694376236     0.635139206767    12.000000000000
         O           -4.635438692724    -0.084255838167     0.164953664722    15.994914619560
         H           -5.111491280682     0.378732958361     0.848200191344     1.007825032070
         CL           3.355439318035     1.713636822195    -0.366821228642    34.968852682000
         CL          -0.062726243153    -1.748270822421    -2.608157466989    34.968852682000
         CL           1.635645474311     1.620533479191     2.351490843504    34.968852682000

  Nuclear repulsion = 1186.391860157621522

  ==> Basis Set <==

  Basis Set: 6-31G(D)
    Blend: 6-31G(D)
    Number of shells: 100
    Number of basis function: 232
    Number of Cartesian functions: 232
    Spherical Harmonics?: false
    Max angular momentum: 2

  ==> DFJKGrad: Density-Fitted SCF Gradients <==

    Gradient:                    1
    J tasked:                  Yes
    K tasked:                  Yes
    wK tasked:                  No
    OpenMP threads:             16
    Integrals threads:          16
    Memory (MB):             78678
    Schwarz Cutoff:          0E+00
    Fitting Condition:       1E-12

   => Auxiliary Basis Set <=

  Basis Set: (6-31G(D) AUX)
    Blend: CC-PVDZ-JKFIT
    Number of shells: 417
    Number of basis function: 1406
    Number of Cartesian functions: 1406
    Spherical Harmonics?: false
    Max angular momentum: 3


  -Total Gradient:
     Atom            X                  Y                   Z
    ------   -----------------  -----------------  -----------------
       1       -0.000812068567    -0.000356737264     0.000182138794
       2        0.000056432602     0.000020587405    -0.000046177641
       3        0.000259710303     0.000072506925    -0.000072626245
       4       -0.000110345034    -0.000097781058    -0.000063421817
       5       -0.000002349319     0.000005633687     0.000001076758
       6       -0.000000843122    -0.000000725940    -0.000000956437
       7        0.000124728278     0.000049451024    -0.000082501051
       8       -0.000005390338     0.000072721166     0.000165485405
       9        0.000410073096     0.000168904935    -0.000114782013
      10        0.000014597981     0.000016755485     0.000002289893
      11       -0.000006355140     0.000004291107    -0.000010510790
      12        0.000000640615    -0.000000115912     0.000000002216
      13       -0.000000250767    -0.000001237620     0.000000870786
      14        0.000001962919     0.000000388555     0.000002783133
      15        0.000001001040    -0.000000620573    -0.000000682866
      16        0.000000072415    -0.000000038774     0.000000049713
      17       -0.000006491180     0.000000866297    -0.000003730899
      18        0.000077490060     0.000046417985     0.000041160451
      19       -0.000002616006    -0.000001267445    -0.000000467228


*** tstop() called on wr53 at Wed Sep 26 15:53:05 2018
Module time:
	user time   =      68.66 seconds =       1.14 minutes
	system time =       2.31 seconds =       0.04 minutes
	total time  =          9 seconds =       0.15 minutes
Total time:
	user time   =     310.19 seconds =       5.17 minutes
	system time =      16.31 seconds =       0.27 minutes
	total time  =         43 seconds =       0.72 minutes

  //>>>>>>>>>>>>>>>>>>>>>>>>>>>>>>>>>>>//
  //   Loading displacement 2 of 103   //
  //<<<<<<<<<<<<<<<<<<<<<<<<<<<<<<<<<<<//
gradient() will perform analytic gradient computation.

*** tstart() called on wr53
*** at Wed Sep 26 15:53:05 2018

   => Loading Basis Set <=

    Name: 6-31G(D)
    Role: ORBITAL
    Keyword: BASIS
    atoms 1, 3-4, 7-9, 11, 14 entry C          line   111 file /usr/local/hpc1/software_molmod/psi4/psi4conda/share/psi4/basis/6-31g_d_.gbs 
    atoms 2, 6, 15            entry O          line   145 file /usr/local/hpc1/software_molmod/psi4/psi4conda/share/psi4/basis/6-31g_d_.gbs 
    atoms 5, 10, 12-13, 16    entry H          line    44 file /usr/local/hpc1/software_molmod/psi4/psi4conda/share/psi4/basis/6-31g_d_.gbs 
    atoms 17-19               entry CL         line   340 file /usr/local/hpc1/software_molmod/psi4/psi4conda/share/psi4/basis/6-31g_d_.gbs 


         ---------------------------------------------------------
                                   SCF
            by Justin Turney, Rob Parrish, Andy Simmonett
                             and Daniel Smith
                              RHF Reference
                       16 Threads, 104904 MiB Core
         ---------------------------------------------------------

  ==> Geometry <==

    Molecular point group: c1
    Full point group: C1

    Geometry (in Angstrom), charge = 0, multiplicity = 1:

       Center              X                  Y                   Z               Mass       
    ------------   -----------------  -----------------  -----------------  -----------------
         C            0.397390839279    -0.795504889151    -1.231875575221    12.000000000000
         O           -1.438506195822    -1.643423824351     0.039528338442    15.994914619560
         C           -0.356443644771    -0.833269795056    -0.065870175361    12.000000000000
         C            0.048055619584    -0.082628806785     1.022676409502    12.000000000000
         H           -0.537566261892    -0.119585371160     1.918717358210     1.007825032070
         O           -3.075244939897    -0.188225927085     1.732949052997    15.994914619560
         C            1.183745089407     0.704951008284     0.953604229958    12.000000000000
         C            1.926743216234     0.745706284398    -0.216990118946    12.000000000000
         C            1.528363505007    -0.008667936971    -1.306520827042    12.000000000000
         H            2.105697307164     0.014786348408    -2.209239571796     1.007825032070
         C           -2.664948064905    -1.172958666476    -0.431815100495    12.000000000000
         H           -3.243508554125    -2.032136639415    -0.741004168542     1.007825032070
         H           -2.552223763247    -0.523200057083    -1.291353944650     1.007825032070
         C           -3.444358097407    -0.433675408950     0.635179021006    12.000000000000
         O           -4.635511684929    -0.084226260395     0.165010180788    15.994914619560
         H           -5.111552818746     0.378761660805     0.848265281091     1.007825032070
         CL           3.355371632599     1.713616865145    -0.366852432900    34.968852682000
         CL          -0.062844307183    -1.748255092373    -2.608166961397    34.968852682000
         CL           1.635610607427     1.620508891825     2.351480243681    34.968852682000

  Running in c1 symmetry.

  Rotational constants: A =      0.02131  B =      0.01037  C =      0.00740 [cm^-1]
  Rotational constants: A =    638.71889  B =    310.95604  C =    221.84118 [MHz]
  Nuclear repulsion = 1186.384971922725754

  Charge       = 0
  Multiplicity = 1
  Electrons    = 128
  Nalpha       = 64
  Nbeta        = 64

  ==> Algorithm <==

  SCF Algorithm Type is DF.
  DIIS enabled.
  MOM disabled.
  Fractional occupation disabled.
  Guess Type is SAD.
  Energy threshold   = 1.00e-08
  Density threshold  = 1.00e-08
  Integral threshold = 0.00e+00

  ==> Primary Basis <==

  Basis Set: 6-31G(D)
    Blend: 6-31G(D)
    Number of shells: 100
    Number of basis function: 232
    Number of Cartesian functions: 232
    Spherical Harmonics?: false
    Max angular momentum: 2

   => Loading Basis Set <=

    Name: (6-31G(D) AUX)
    Role: JKFIT
    Keyword: DF_BASIS_SCF
    atoms 1, 3-4, 7-9, 11, 14 entry C          line   121 file /usr/local/hpc1/software_molmod/psi4/psi4conda/share/psi4/basis/cc-pvdz-jkfit.gbs 
    atoms 2, 6, 15            entry O          line   221 file /usr/local/hpc1/software_molmod/psi4/psi4conda/share/psi4/basis/cc-pvdz-jkfit.gbs 
    atoms 5, 10, 12-13, 16    entry H          line    51 file /usr/local/hpc1/software_molmod/psi4/psi4conda/share/psi4/basis/cc-pvdz-jkfit.gbs 
    atoms 17-19               entry CL         line   667 file /usr/local/hpc1/software_molmod/psi4/psi4conda/share/psi4/basis/cc-pvdz-jkfit.gbs 

  ==> Pre-Iterations <==

   -------------------------------------------------------
    Irrep   Nso     Nmo     Nalpha   Nbeta   Ndocc  Nsocc
   -------------------------------------------------------
     A        232     232       0       0       0       0
   -------------------------------------------------------
    Total     232     232      64      64      64       0
   -------------------------------------------------------

  ==> Integral Setup <==

  ==> DiskDFJK: Density-Fitted J/K Matrices <==

    J tasked:                  Yes
    K tasked:                  Yes
    wK tasked:                  No
    OpenMP threads:             16
    Integrals threads:          16
    Memory (MB):             78678
    Algorithm:                Core
    Integral Cache:           NONE
    Schwarz Cutoff:          1E-12
    Fitting Condition:       1E-12

   => Auxiliary Basis Set <=

  Basis Set: (6-31G(D) AUX)
    Blend: CC-PVDZ-JKFIT
    Number of shells: 417
    Number of basis function: 1406
    Number of Cartesian functions: 1406
    Spherical Harmonics?: false
    Max angular momentum: 3

  Minimum eigenvalue in the overlap matrix is 3.6630452339E-04.
  Using Symmetric Orthogonalization.

  SCF Guess: Superposition of Atomic Densities via on-the-fly atomic UHF.

  ==> Iterations <==

                           Total Energy        Delta E     RMS |[F,P]|

   @DF-RHF iter   0: -1914.84306837299187   -1.91484e+03   5.67042e-02 
   @DF-RHF iter   1: -1908.45427698818867    6.38879e+00   9.30780e-03 
   @DF-RHF iter   2: -1908.77245170337528   -3.18175e-01   5.28104e-03 DIIS
   @DF-RHF iter   3: -1908.86498350860575   -9.25318e-02   1.58280e-03 DIIS
   @DF-RHF iter   4: -1908.88064668043762   -1.56632e-02   5.07621e-04 DIIS
   @DF-RHF iter   5: -1908.88236529729534   -1.71862e-03   1.88333e-04 DIIS
   @DF-RHF iter   6: -1908.88264718433561   -2.81887e-04   6.34083e-05 DIIS
   @DF-RHF iter   7: -1908.88268235399937   -3.51697e-05   1.70632e-05 DIIS
   @DF-RHF iter   8: -1908.88268517229994   -2.81830e-06   6.92602e-06 DIIS
   @DF-RHF iter   9: -1908.88268558163236   -4.09332e-07   3.11399e-06 DIIS
   @DF-RHF iter  10: -1908.88268567989871   -9.82664e-08   9.03993e-07 DIIS
   @DF-RHF iter  11: -1908.88268570285845   -2.29597e-08   5.04626e-07 DIIS
   @DF-RHF iter  12: -1908.88268570616810   -3.30965e-09   1.93824e-07 DIIS
   @DF-RHF iter  13: -1908.88268570665514   -4.87034e-10   8.68627e-08 DIIS
   @DF-RHF iter  14: -1908.88268570673881   -8.36735e-11   2.00867e-08 DIIS
   @DF-RHF iter  15: -1908.88268570674722   -8.41283e-12   7.49268e-09 DIIS

  ==> Post-Iterations <==

    Orbital Energies [Eh]
    ---------------------

    Doubly Occupied:                                                      

       1A   -104.847501     2A   -104.843108     3A   -104.841162  
       4A    -20.637783     5A    -20.613635     6A    -20.577755  
       7A    -11.405529     8A    -11.332874     9A    -11.330790  
      10A    -11.329360    11A    -11.325636    12A    -11.323749  
      13A    -11.279349    14A    -11.266802    15A    -10.580534  
      16A    -10.576334    17A    -10.574427    18A     -8.049975  
      19A     -8.046544    20A     -8.046483    21A     -8.045780  
      22A     -8.043874    23A     -8.042251    24A     -8.042250  
      25A     -8.040349    26A     -8.040316    27A     -1.501974  
      28A     -1.447209    29A     -1.392482    30A     -1.239809  
      31A     -1.183445    32A     -1.149605    33A     -1.110535  
      34A     -1.055075    35A     -1.019515    36A     -0.980779  
      37A     -0.880133    38A     -0.864764    39A     -0.812758  
      40A     -0.746837    41A     -0.740694    42A     -0.724588  
      43A     -0.704316    44A     -0.690741    45A     -0.670410  
      46A     -0.650783    47A     -0.639360    48A     -0.617218  
      49A     -0.604300    50A     -0.589225    51A     -0.572103  
      52A     -0.561321    53A     -0.543191    54A     -0.526754  
      55A     -0.504234    56A     -0.500820    57A     -0.496219  
      58A     -0.481711    59A     -0.472267    60A     -0.460553  
      61A     -0.455559    62A     -0.453060    63A     -0.361312  
      64A     -0.343127  

    Virtual:                                                              

      65A      0.101707    66A      0.109158    67A      0.153179  
      68A      0.173158    69A      0.206665    70A      0.213207  
      71A      0.237020    72A      0.243167    73A      0.294316  
      74A      0.302864    75A      0.310354    76A      0.325850  
      77A      0.334760    78A      0.392941    79A      0.408991  
      80A      0.431083    81A      0.441964    82A      0.457406  
      83A      0.478894    84A      0.488643    85A      0.528101  
      86A      0.529484    87A      0.550015    88A      0.571155  
      89A      0.586682    90A      0.602297    91A      0.607820  
      92A      0.623658    93A      0.631832    94A      0.637635  
      95A      0.656216    96A      0.665652    97A      0.669252  
      98A      0.683106    99A      0.709762   100A      0.715053  
     101A      0.738299   102A      0.766447   103A      0.777814  
     104A      0.784067   105A      0.807146   106A      0.817919  
     107A      0.822977   108A      0.846281   109A      0.855205  
     110A      0.881012   111A      0.892384   112A      0.911340  
     113A      0.933521   114A      0.940676   115A      0.958670  
     116A      0.964735   117A      0.993461   118A      1.005296  
     119A      1.028750   120A      1.047314   121A      1.056741  
     122A      1.065867   123A      1.084221   124A      1.089283  
     125A      1.113160   126A      1.120774   127A      1.125881  
     128A      1.134714   129A      1.135494   130A      1.139295  
     131A      1.146535   132A      1.161236   133A      1.186430  
     134A      1.187901   135A      1.189923   136A      1.199301  
     137A      1.215004   138A      1.224502   139A      1.236081  
     140A      1.265401   141A      1.282739   142A      1.292428  
     143A      1.301583   144A      1.326693   145A      1.342056  
     146A      1.366593   147A      1.395355   148A      1.417034  
     149A      1.426795   150A      1.435811   151A      1.456990  
     152A      1.476239   153A      1.507609   154A      1.540680  
     155A      1.563159   156A      1.598188   157A      1.613576  
     158A      1.658261   159A      1.668121   160A      1.677135  
     161A      1.689579   162A      1.741413   163A      1.765538  
     164A      1.786975   165A      1.797890   166A      1.817465  
     167A      1.832478   168A      1.889303   169A      1.889581  
     170A      1.951252   171A      2.008214   172A      2.029722  
     173A      2.045439   174A      2.059230   175A      2.069277  
     176A      2.085418   177A      2.118277   178A      2.139038  
     179A      2.197897   180A      2.225634   181A      2.229802  
     182A      2.232642   183A      2.266543   184A      2.337871  
     185A      2.354374   186A      2.370314   187A      2.383289  
     188A      2.390123   189A      2.416547   190A      2.428290  
     191A      2.453100   192A      2.474781   193A      2.520547  
     194A      2.583890   195A      2.586838   196A      2.600299  
     197A      2.618099   198A      2.744715   199A      2.762884  
     200A      2.778164   201A      2.838301   202A      2.846652  
     203A      2.892166   204A      2.971987   205A      2.987579  
     206A      3.025174   207A      3.069466   208A      3.075906  
     209A      3.083434   210A      3.119599   211A      3.172129  
     212A      3.193762   213A      3.292841   214A      3.371746  
     215A      3.418707   216A      3.495356   217A      3.506581  
     218A      3.715608   219A      4.220876   220A      4.430110  
     221A      4.457789   222A      4.479995   223A      4.515201  
     224A      4.579290   225A      4.667366   226A      4.675134  
     227A      4.728815   228A      4.751962   229A      4.802764  
     230A      4.861437   231A      4.939522   232A      5.146613  

    Final Occupation by Irrep:
              A 
    DOCC [    64 ]

  Energy converged.

  @DF-RHF Final Energy: -1908.88268570674722

   => Energetics <=

    Nuclear Repulsion Energy =           1186.3849719227257538
    One-Electron Energy =               -4990.8694483402186961
    Two-Electron Energy =                1895.6017907107459450
    Total Energy =                      -1908.8826857067472247



Properties will be evaluated at   0.000000,   0.000000,   0.000000 [a0]

Properties computed using the SCF density matrix

  Nuclear Dipole Moment: [e a0]
     X:   -13.3105      Y:    -3.5997      Z:    -0.8023

  Electronic Dipole Moment: [e a0]
     X:    12.1292      Y:     3.6535      Z:     0.1634

  Dipole Moment: [e a0]
     X:    -1.1813      Y:     0.0538      Z:    -0.6389     Total:     1.3441

  Dipole Moment: [D]
     X:    -3.0027      Y:     0.1367      Z:    -1.6238     Total:     3.4164


*** tstop() called on wr53 at Wed Sep 26 15:53:14 2018
Module time:
	user time   =      84.28 seconds =       1.40 minutes
	system time =       6.89 seconds =       0.11 minutes
	total time  =          9 seconds =       0.15 minutes
Total time:
	user time   =     394.56 seconds =       6.58 minutes
	system time =      23.20 seconds =       0.39 minutes
	total time  =         52 seconds =       0.87 minutes

*** tstart() called on wr53
*** at Wed Sep 26 15:53:14 2018


         ------------------------------------------------------------
                                   SCF GRAD                          
                          Rob Parrish, Justin Turney,                
                       Andy Simmonett, and Alex Sokolov              
         ------------------------------------------------------------

  ==> Geometry <==

    Molecular point group: c1
    Full point group: C1

    Geometry (in Angstrom), charge = 0, multiplicity = 1:

       Center              X                  Y                   Z               Mass       
    ------------   -----------------  -----------------  -----------------  -----------------
         C            0.397390839279    -0.795504889151    -1.231875575221    12.000000000000
         O           -1.438506195822    -1.643423824351     0.039528338442    15.994914619560
         C           -0.356443644771    -0.833269795056    -0.065870175361    12.000000000000
         C            0.048055619584    -0.082628806785     1.022676409502    12.000000000000
         H           -0.537566261892    -0.119585371160     1.918717358210     1.007825032070
         O           -3.075244939897    -0.188225927085     1.732949052997    15.994914619560
         C            1.183745089407     0.704951008284     0.953604229958    12.000000000000
         C            1.926743216234     0.745706284398    -0.216990118946    12.000000000000
         C            1.528363505007    -0.008667936971    -1.306520827042    12.000000000000
         H            2.105697307164     0.014786348408    -2.209239571796     1.007825032070
         C           -2.664948064905    -1.172958666476    -0.431815100495    12.000000000000
         H           -3.243508554125    -2.032136639415    -0.741004168542     1.007825032070
         H           -2.552223763247    -0.523200057083    -1.291353944650     1.007825032070
         C           -3.444358097407    -0.433675408950     0.635179021006    12.000000000000
         O           -4.635511684929    -0.084226260395     0.165010180788    15.994914619560
         H           -5.111552818746     0.378761660805     0.848265281091     1.007825032070
         CL           3.355371632599     1.713616865145    -0.366852432900    34.968852682000
         CL          -0.062844307183    -1.748255092373    -2.608166961397    34.968852682000
         CL           1.635610607427     1.620508891825     2.351480243681    34.968852682000

  Nuclear repulsion = 1186.384971922725754

  ==> Basis Set <==

  Basis Set: 6-31G(D)
    Blend: 6-31G(D)
    Number of shells: 100
    Number of basis function: 232
    Number of Cartesian functions: 232
    Spherical Harmonics?: false
    Max angular momentum: 2

  ==> DFJKGrad: Density-Fitted SCF Gradients <==

    Gradient:                    1
    J tasked:                  Yes
    K tasked:                  Yes
    wK tasked:                  No
    OpenMP threads:             16
    Integrals threads:          16
    Memory (MB):             78678
    Schwarz Cutoff:          0E+00
    Fitting Condition:       1E-12

   => Auxiliary Basis Set <=

  Basis Set: (6-31G(D) AUX)
    Blend: CC-PVDZ-JKFIT
    Number of shells: 417
    Number of basis function: 1406
    Number of Cartesian functions: 1406
    Spherical Harmonics?: false
    Max angular momentum: 3


  -Total Gradient:
     Atom            X                  Y                   Z
    ------   -----------------  -----------------  -----------------
       1        0.000814137740     0.000356472277    -0.000181207585
       2       -0.000055620561    -0.000020736674     0.000046093887
       3       -0.000261097623    -0.000070832928     0.000071432883
       4        0.000109101508     0.000098902484     0.000062523934
       5        0.000001935935    -0.000005334279    -0.000001254688
       6        0.000000397657     0.000000571786     0.000000401692
       7       -0.000120838412    -0.000054328045     0.000084129980
       8        0.000006258657    -0.000073649661    -0.000164797892
       9       -0.000412375356    -0.000169077704     0.000114673071
      10       -0.000014689366    -0.000016485476    -0.000002325876
      11        0.000006569841    -0.000004584902     0.000010707931
      12       -0.000000759060     0.000000182739    -0.000000062745
      13        0.000000451490     0.000001169219    -0.000000653507
      14       -0.000001747866    -0.000000288485    -0.000002498182
      15       -0.000000985801     0.000000832769     0.000000997412
      16       -0.000000179185     0.000000053831    -0.000000116178
      17        0.000005661650     0.000000180818     0.000003356572
      18       -0.000077653305    -0.000046085803    -0.000041410820
      19        0.000001431929     0.000003038056     0.000000010185


*** tstop() called on wr53 at Wed Sep 26 15:53:19 2018
Module time:
	user time   =      60.76 seconds =       1.01 minutes
	system time =       1.74 seconds =       0.03 minutes
	total time  =          5 seconds =       0.08 minutes
Total time:
	user time   =     455.34 seconds =       7.59 minutes
	system time =      24.94 seconds =       0.42 minutes
	total time  =         57 seconds =       0.95 minutes

  //>>>>>>>>>>>>>>>>>>>>>>>>>>>>>>>>>>>//
  //   Loading displacement 3 of 103   //
  //<<<<<<<<<<<<<<<<<<<<<<<<<<<<<<<<<<<//
gradient() will perform analytic gradient computation.

*** tstart() called on wr53
*** at Wed Sep 26 15:53:19 2018

   => Loading Basis Set <=

    Name: 6-31G(D)
    Role: ORBITAL
    Keyword: BASIS
    atoms 1, 3-4, 7-9, 11, 14 entry C          line   111 file /usr/local/hpc1/software_molmod/psi4/psi4conda/share/psi4/basis/6-31g_d_.gbs 
    atoms 2, 6, 15            entry O          line   145 file /usr/local/hpc1/software_molmod/psi4/psi4conda/share/psi4/basis/6-31g_d_.gbs 
    atoms 5, 10, 12-13, 16    entry H          line    44 file /usr/local/hpc1/software_molmod/psi4/psi4conda/share/psi4/basis/6-31g_d_.gbs 
    atoms 17-19               entry CL         line   340 file /usr/local/hpc1/software_molmod/psi4/psi4conda/share/psi4/basis/6-31g_d_.gbs 


         ---------------------------------------------------------
                                   SCF
            by Justin Turney, Rob Parrish, Andy Simmonett
                             and Daniel Smith
                              RHF Reference
                       16 Threads, 104904 MiB Core
         ---------------------------------------------------------

  ==> Geometry <==

    Molecular point group: c1
    Full point group: C1

    Geometry (in Angstrom), charge = 0, multiplicity = 1:

       Center              X                  Y                   Z               Mass       
    ------------   -----------------  -----------------  -----------------  -----------------
         C            0.396650384427    -0.796243926028    -1.231883003214    12.000000000000
         O           -1.438459889821    -1.643394962808     0.039506866829    15.994914619560
         C           -0.356401635889    -0.833233685577    -0.065880050275    12.000000000000
         C            0.048090428561    -0.082602045974     1.022675656681    12.000000000000
         H           -0.537533675017    -0.119571502153     1.918714621375     1.007825032070
         O           -3.075211460594    -0.188224427695     1.732938696959    15.994914619560
         C            1.183775630404     0.704984932056     0.953614978018    12.000000000000
         C            1.926776702771     0.745756925308    -0.216976919262    12.000000000000
         C            1.528404215238    -0.008607902255    -1.306516772756    12.000000000000
         H            2.105740333999     0.014859299429    -2.209233700326     1.007825032070
         C           -2.664903141415    -1.172931704044    -0.431834870384    12.000000000000
         H           -3.243457931324    -2.032109644555    -0.741034693078     1.007825032070
         H           -2.552180183308    -0.523163268220    -1.291366462600     1.007825032070
         C           -3.444320251052    -0.433664262106     0.635165039524    12.000000000000
         O           -4.635474539684    -0.084216825596     0.164996703083    15.994914619560
         H           -5.111520146458     0.378761098449     0.848255461236     1.007825032070
         CL           3.355400050215     1.713677189833    -0.366825009728    34.968852682000
         CL          -0.062790224329    -1.748190144059    -2.608185821179    34.968852682000
         CL           1.635632176290     1.620530428049     2.351502005363    34.968852682000

  Running in c1 symmetry.

  Rotational constants: A =      0.02131  B =      0.01037  C =      0.00740 [cm^-1]
  Rotational constants: A =    638.71298  B =    310.95568  C =    221.84059 [MHz]
  Nuclear repulsion = 1186.386391578210805

  Charge       = 0
  Multiplicity = 1
  Electrons    = 128
  Nalpha       = 64
  Nbeta        = 64

  ==> Algorithm <==

  SCF Algorithm Type is DF.
  DIIS enabled.
  MOM disabled.
  Fractional occupation disabled.
  Guess Type is SAD.
  Energy threshold   = 1.00e-08
  Density threshold  = 1.00e-08
  Integral threshold = 0.00e+00

  ==> Primary Basis <==

  Basis Set: 6-31G(D)
    Blend: 6-31G(D)
    Number of shells: 100
    Number of basis function: 232
    Number of Cartesian functions: 232
    Spherical Harmonics?: false
    Max angular momentum: 2

   => Loading Basis Set <=

    Name: (6-31G(D) AUX)
    Role: JKFIT
    Keyword: DF_BASIS_SCF
    atoms 1, 3-4, 7-9, 11, 14 entry C          line   121 file /usr/local/hpc1/software_molmod/psi4/psi4conda/share/psi4/basis/cc-pvdz-jkfit.gbs 
    atoms 2, 6, 15            entry O          line   221 file /usr/local/hpc1/software_molmod/psi4/psi4conda/share/psi4/basis/cc-pvdz-jkfit.gbs 
    atoms 5, 10, 12-13, 16    entry H          line    51 file /usr/local/hpc1/software_molmod/psi4/psi4conda/share/psi4/basis/cc-pvdz-jkfit.gbs 
    atoms 17-19               entry CL         line   667 file /usr/local/hpc1/software_molmod/psi4/psi4conda/share/psi4/basis/cc-pvdz-jkfit.gbs 

  ==> Pre-Iterations <==

   -------------------------------------------------------
    Irrep   Nso     Nmo     Nalpha   Nbeta   Ndocc  Nsocc
   -------------------------------------------------------
     A        232     232       0       0       0       0
   -------------------------------------------------------
    Total     232     232      64      64      64       0
   -------------------------------------------------------

  ==> Integral Setup <==

  ==> DiskDFJK: Density-Fitted J/K Matrices <==

    J tasked:                  Yes
    K tasked:                  Yes
    wK tasked:                  No
    OpenMP threads:             16
    Integrals threads:          16
    Memory (MB):             78678
    Algorithm:                Core
    Integral Cache:           NONE
    Schwarz Cutoff:          1E-12
    Fitting Condition:       1E-12

   => Auxiliary Basis Set <=

  Basis Set: (6-31G(D) AUX)
    Blend: CC-PVDZ-JKFIT
    Number of shells: 417
    Number of basis function: 1406
    Number of Cartesian functions: 1406
    Spherical Harmonics?: false
    Max angular momentum: 3

  Minimum eigenvalue in the overlap matrix is 3.6665475754E-04.
  Using Symmetric Orthogonalization.

  SCF Guess: Superposition of Atomic Densities via on-the-fly atomic UHF.

  ==> Iterations <==

                           Total Energy        Delta E     RMS |[F,P]|

   @DF-RHF iter   0: -1914.07883676379106   -1.91408e+03   7.46301e-02 
   @DF-RHF iter   1: -1908.52716660404894    5.55167e+00   7.38382e-03 
   @DF-RHF iter   2: -1908.81213054952195   -2.84964e-01   3.97769e-03 DIIS
   @DF-RHF iter   3: -1908.86745791860699   -5.53274e-02   1.49528e-03 DIIS
   @DF-RHF iter   4: -1908.88120805451081   -1.37501e-02   4.01621e-04 DIIS
   @DF-RHF iter   5: -1908.88236381645311   -1.15576e-03   1.72717e-04 DIIS
   @DF-RHF iter   6: -1908.88263122082185   -2.67404e-04   6.02588e-05 DIIS
   @DF-RHF iter   7: -1908.88267831387088   -4.70930e-05   1.99541e-05 DIIS
   @DF-RHF iter   8: -1908.88268451012277   -6.19625e-06   8.92057e-06 DIIS
   @DF-RHF iter   9: -1908.88268561972723   -1.10960e-06   3.90074e-06 DIIS
   @DF-RHF iter  10: -1908.88268587297580   -2.53249e-07   1.46516e-06 DIIS
   @DF-RHF iter  11: -1908.88268590152757   -2.85518e-08   5.60478e-07 DIIS
   @DF-RHF iter  12: -1908.88268590410280   -2.57523e-09   2.05204e-07 DIIS
   @DF-RHF iter  13: -1908.88268590446592   -3.63116e-10   7.18977e-08 DIIS
   @DF-RHF iter  14: -1908.88268590451389   -4.79758e-11   2.34645e-08 DIIS
   @DF-RHF iter  15: -1908.88268590451821   -4.32010e-12   1.10905e-08 DIIS
   @DF-RHF iter  16: -1908.88268590452140   -3.18323e-12   3.36807e-09 DIIS

  ==> Post-Iterations <==

    Orbital Energies [Eh]
    ---------------------

    Doubly Occupied:                                                      

       1A   -104.847574     2A   -104.843094     3A   -104.841151  
       4A    -20.637775     5A    -20.613579     6A    -20.577747  
       7A    -11.405519     8A    -11.332803     9A    -11.330779  
      10A    -11.329347    11A    -11.325633    12A    -11.323735  
      13A    -11.279430    14A    -11.266797    15A    -10.580615  
      16A    -10.576321    17A    -10.574416    18A     -8.050058  
      19A     -8.046625    20A     -8.046564    21A     -8.045767  
      22A     -8.043863    23A     -8.042238    24A     -8.042237  
      25A     -8.040338    26A     -8.040305    27A     -1.501967  
      28A     -1.447191    29A     -1.392474    30A     -1.239756  
      31A     -1.183536    32A     -1.149590    33A     -1.110577  
      34A     -1.055003    35A     -1.019426    36A     -0.980805  
      37A     -0.880135    38A     -0.864769    39A     -0.812681  
      40A     -0.746819    41A     -0.740645    42A     -0.724578  
      43A     -0.704294    44A     -0.690721    45A     -0.670416  
      46A     -0.650760    47A     -0.639307    48A     -0.617207  
      49A     -0.604355    50A     -0.589184    51A     -0.572092  
      52A     -0.561384    53A     -0.543172    54A     -0.526812  
      55A     -0.504229    56A     -0.500839    57A     -0.496213  
      58A     -0.481719    59A     -0.472290    60A     -0.460536  
      61A     -0.455546    62A     -0.453040    63A     -0.361198  
      64A     -0.343140  

    Virtual:                                                              

      65A      0.101594    66A      0.109249    67A      0.153258  
      68A      0.173167    69A      0.206765    70A      0.213216  
      71A      0.237018    72A      0.243170    73A      0.294334  
      74A      0.302849    75A      0.310347    76A      0.325829  
      77A      0.334744    78A      0.392916    79A      0.409011  
      80A      0.431128    81A      0.441764    82A      0.457372  
      83A      0.478859    84A      0.488676    85A      0.528102  
      86A      0.529490    87A      0.550023    88A      0.571126  
      89A      0.586671    90A      0.602309    91A      0.607811  
      92A      0.623710    93A      0.631858    94A      0.637594  
      95A      0.656220    96A      0.665655    97A      0.669266  
      98A      0.683023    99A      0.709755   100A      0.715203  
     101A      0.738359   102A      0.766424   103A      0.777823  
     104A      0.784110   105A      0.807090   106A      0.817998  
     107A      0.822947   108A      0.846243   109A      0.855178  
     110A      0.881046   111A      0.892446   112A      0.911330  
     113A      0.933560   114A      0.940653   115A      0.958677  
     116A      0.964736   117A      0.993485   118A      1.005284  
     119A      1.028659   120A      1.047272   121A      1.056788  
     122A      1.065888   123A      1.084268   124A      1.089289  
     125A      1.113174   126A      1.120760   127A      1.125975  
     128A      1.134711   129A      1.135459   130A      1.139241  
     131A      1.146538   132A      1.161217   133A      1.186381  
     134A      1.187839   135A      1.189921   136A      1.199292  
     137A      1.215017   138A      1.224501   139A      1.235944  
     140A      1.265428   141A      1.282802   142A      1.292389  
     143A      1.301695   144A      1.326689   145A      1.342103  
     146A      1.366604   147A      1.395328   148A      1.417055  
     149A      1.426714   150A      1.435870   151A      1.457031  
     152A      1.476164   153A      1.507586   154A      1.540695  
     155A      1.563174   156A      1.598114   157A      1.613556  
     158A      1.658248   159A      1.668194   160A      1.677035  
     161A      1.689580   162A      1.741428   163A      1.765562  
     164A      1.786966   165A      1.798006   166A      1.817486  
     167A      1.832468   168A      1.889283   169A      1.889705  
     170A      1.951286   171A      2.008193   172A      2.029745  
     173A      2.045320   174A      2.059234   175A      2.069287  
     176A      2.085382   177A      2.118292   178A      2.139057  
     179A      2.197989   180A      2.225758   181A      2.229881  
     182A      2.232684   183A      2.266470   184A      2.337966  
     185A      2.354423   186A      2.370313   187A      2.383244  
     188A      2.389972   189A      2.416329   190A      2.428100  
     191A      2.453039   192A      2.474775   193A      2.520540  
     194A      2.583750   195A      2.586838   196A      2.600040  
     197A      2.618151   198A      2.744698   199A      2.762923  
     200A      2.778188   201A      2.838300   202A      2.846798  
     203A      2.891934   204A      2.971804   205A      2.987611  
     206A      3.025302   207A      3.069430   208A      3.075421  
     209A      3.082997   210A      3.119520   211A      3.172080  
     212A      3.193855   213A      3.292873   214A      3.371789  
     215A      3.418655   216A      3.495453   217A      3.506587  
     218A      3.715418   219A      4.220854   220A      4.430125  
     221A      4.457612   222A      4.479902   223A      4.515148  
     224A      4.579296   225A      4.667333   226A      4.675105  
     227A      4.728794   228A      4.751923   229A      4.802934  
     230A      4.861438   231A      4.939509   232A      5.146420  

    Final Occupation by Irrep:
              A 
    DOCC [    64 ]

  Energy converged.

  @DF-RHF Final Energy: -1908.88268590452140

   => Energetics <=

    Nuclear Repulsion Energy =           1186.3863915782108052
    One-Electron Energy =               -4990.8727130431534533
    Two-Electron Energy =                1895.6036355604212531
    Total Energy =                      -1908.8826859045213951



Properties will be evaluated at   0.000000,   0.000000,   0.000000 [a0]

Properties computed using the SCF density matrix

  Nuclear Dipole Moment: [e a0]
     X:   -13.3104      Y:    -3.5997      Z:    -0.8024

  Electronic Dipole Moment: [e a0]
     X:    12.1289      Y:     3.6528      Z:     0.1625

  Dipole Moment: [e a0]
     X:    -1.1815      Y:     0.0531      Z:    -0.6398     Total:     1.3447

  Dipole Moment: [D]
     X:    -3.0031      Y:     0.1350      Z:    -1.6263     Total:     3.4179


*** tstop() called on wr53 at Wed Sep 26 15:53:29 2018
Module time:
	user time   =     100.73 seconds =       1.68 minutes
	system time =       7.01 seconds =       0.12 minutes
	total time  =         10 seconds =       0.17 minutes
Total time:
	user time   =     556.21 seconds =       9.27 minutes
	system time =      31.96 seconds =       0.53 minutes
	total time  =         67 seconds =       1.12 minutes

*** tstart() called on wr53
*** at Wed Sep 26 15:53:29 2018


         ------------------------------------------------------------
                                   SCF GRAD                          
                          Rob Parrish, Justin Turney,                
                       Andy Simmonett, and Alex Sokolov              
         ------------------------------------------------------------

  ==> Geometry <==

    Molecular point group: c1
    Full point group: C1

    Geometry (in Angstrom), charge = 0, multiplicity = 1:

       Center              X                  Y                   Z               Mass       
    ------------   -----------------  -----------------  -----------------  -----------------
         C            0.396650384427    -0.796243926028    -1.231883003214    12.000000000000
         O           -1.438459889821    -1.643394962808     0.039506866829    15.994914619560
         C           -0.356401635889    -0.833233685577    -0.065880050275    12.000000000000
         C            0.048090428561    -0.082602045974     1.022675656681    12.000000000000
         H           -0.537533675017    -0.119571502153     1.918714621375     1.007825032070
         O           -3.075211460594    -0.188224427695     1.732938696959    15.994914619560
         C            1.183775630404     0.704984932056     0.953614978018    12.000000000000
         C            1.926776702771     0.745756925308    -0.216976919262    12.000000000000
         C            1.528404215238    -0.008607902255    -1.306516772756    12.000000000000
         H            2.105740333999     0.014859299429    -2.209233700326     1.007825032070
         C           -2.664903141415    -1.172931704044    -0.431834870384    12.000000000000
         H           -3.243457931324    -2.032109644555    -0.741034693078     1.007825032070
         H           -2.552180183308    -0.523163268220    -1.291366462600     1.007825032070
         C           -3.444320251052    -0.433664262106     0.635165039524    12.000000000000
         O           -4.635474539684    -0.084216825596     0.164996703083    15.994914619560
         H           -5.111520146458     0.378761098449     0.848255461236     1.007825032070
         CL           3.355400050215     1.713677189833    -0.366825009728    34.968852682000
         CL          -0.062790224329    -1.748190144059    -2.608185821179    34.968852682000
         CL           1.635632176290     1.620530428049     2.351502005363    34.968852682000

  Nuclear repulsion = 1186.386391578210805

  ==> Basis Set <==

  Basis Set: 6-31G(D)
    Blend: 6-31G(D)
    Number of shells: 100
    Number of basis function: 232
    Number of Cartesian functions: 232
    Spherical Harmonics?: false
    Max angular momentum: 2

  ==> DFJKGrad: Density-Fitted SCF Gradients <==

    Gradient:                    1
    J tasked:                  Yes
    K tasked:                  Yes
    wK tasked:                  No
    OpenMP threads:             16
    Integrals threads:          16
[...]
     12   H                0.28 -0.12 -0.25   -0.03  0.01 -0.01   -0.25  0.08 -0.05   
     13   H                0.24  0.07  0.27   -0.07  0.03  0.00   -0.31  0.14 -0.07   
     14   C                0.05  0.08 -0.03    0.00  0.00 -0.00   -0.05  0.03 -0.00   
     15   O               -0.04 -0.00 -0.01    0.00 -0.00  0.00    0.08 -0.02  0.04   
     16   H                0.02  0.00  0.03   -0.00 -0.00 -0.00   -0.09  0.00 -0.11   
     17   CL               0.02  0.01 -0.00   -0.01 -0.01  0.00    0.01  0.00  0.00   
     18   CL              -0.01 -0.02 -0.03    0.00  0.01  0.01   -0.01 -0.02 -0.02   
     19   CL              -0.00 -0.01 -0.02    0.00  0.00  0.00    0.00  0.00  0.00   

  Vibration                       40                  41                  42          
  Freq [cm^-1]                1260.4829           1307.2917           1377.4542       
  Irrep                           A                   A                   A           
  Reduced mass [u]              2.4225              2.3859              1.4416        
  Force const [mDyne/A]         2.2677              2.4024              1.6116        
  Turning point v=0 [a0]        0.1986              0.1965              0.2462        
  RMS dev v=0 [a0 u^1/2]        0.2185              0.2146              0.2091        
  Char temp [K]               1813.5514           1880.8988           1981.8469       
  ----------------------------------------------------------------------------------
      1   C               -0.06 -0.04  0.01   -0.02 -0.03 -0.03    0.01 -0.02 -0.04   
      2   O               -0.05 -0.00 -0.01   -0.01  0.01 -0.03    0.05  0.01  0.02   
      3   C                0.04 -0.01 -0.08   -0.04 -0.03  0.00   -0.06 -0.05 -0.04   
      4   C               -0.04  0.01  0.08   -0.01  0.00  0.01   -0.00 -0.01 -0.01   
      5   H               -0.49 -0.45 -0.21    0.00 -0.00  0.02    0.46  0.48  0.31   
      6   O                0.01  0.00  0.01   -0.03 -0.02 -0.09   -0.00 -0.00  0.00   
      7   C                0.03  0.09  0.18    0.01  0.02  0.02   -0.06 -0.01  0.06   
      8   C                0.19  0.11 -0.07    0.03  0.02  0.00    0.03  0.06  0.09   
      9   C                0.03  0.00 -0.04    0.02  0.00 -0.02    0.02 -0.01 -0.06   
     10   H               -0.36 -0.40 -0.30    0.05  0.04 -0.00   -0.34 -0.37 -0.31   
     11   C                0.04 -0.01  0.01    0.03  0.00  0.03   -0.03  0.02 -0.01   
     12   H               -0.04  0.03  0.04    0.30 -0.15 -0.07    0.16 -0.10 -0.02   
     13   H                0.05 -0.04 -0.01    0.25 -0.15 -0.06   -0.16  0.09  0.02   
     14   C                0.01 -0.02  0.00   -0.18  0.08  0.01    0.01  0.02 -0.00   
     15   O               -0.02  0.01 -0.01    0.17 -0.03  0.13   -0.00 -0.00 -0.01   
     16   H                0.04 -0.00  0.04   -0.63  0.08 -0.53    0.05 -0.01  0.03   
     17   CL              -0.02 -0.02  0.00   -0.00 -0.00  0.00   -0.00 -0.00 -0.00   
     18   CL               0.00  0.00  0.00    0.00  0.00  0.00    0.00  0.00  0.00   
     19   CL              -0.01 -0.01 -0.02   -0.00 -0.00 -0.00    0.00 -0.00 -0.00   

  Vibration                       43                  44                  45          
  Freq [cm^-1]                1386.8720           1442.3795           1456.0080       
  Irrep                           A                   A                   A           
  Reduced mass [u]              1.8183              1.5735              1.6642        
  Force const [mDyne/A]         2.0605              1.9288              2.0787        
  Turning point v=0 [a0]        0.2185              0.2303              0.2229        
  RMS dev v=0 [a0 u^1/2]        0.2083              0.2043              0.2033        
  Char temp [K]               1995.3970           2075.2599           2094.8682       
  ----------------------------------------------------------------------------------
      1   C               -0.11 -0.08 -0.00   -0.08 -0.05  0.00    0.04  0.03 -0.01   
      2   O                0.09 -0.00  0.01    0.09  0.06 -0.02   -0.01 -0.01 -0.01   
      3   C               -0.12 -0.04  0.06   -0.04 -0.02  0.05    0.00 -0.01 -0.03   
      4   C               -0.02 -0.03 -0.02   -0.00 -0.02 -0.04   -0.01  0.01  0.03   
      5   H               -0.16 -0.13 -0.11    0.06  0.04  0.00   -0.04 -0.02  0.01   
      6   O                0.00 -0.00  0.01    0.01  0.01  0.00    0.04 -0.00  0.04   
      7   C                0.03  0.04  0.03   -0.02 -0.01  0.02    0.02  0.01 -0.01   
      8   C                0.05  0.04 -0.00    0.04  0.05  0.04   -0.02 -0.02 -0.03   
      9   C                0.05  0.01 -0.07    0.03 -0.01 -0.07   -0.02  0.00  0.03   
     10   H                0.43  0.39  0.17    0.16  0.12  0.01   -0.07 -0.05  0.01   
     11   C               -0.05  0.04 -0.03   -0.06 -0.02  0.00   -0.05  0.03  0.02   
     12   H                0.42 -0.26 -0.03   -0.56  0.31  0.00    0.40 -0.20 -0.18   
     13   H               -0.43  0.23  0.06    0.63 -0.27 -0.08    0.29 -0.24 -0.14   
     14   C                0.02  0.04 -0.01   -0.04 -0.02  0.02   -0.16  0.08  0.02   
     15   O               -0.01 -0.01 -0.02    0.01 -0.00 -0.02    0.04 -0.04 -0.06   
     16   H                0.13 -0.02  0.10    0.13 -0.03  0.10    0.60 -0.11  0.41   
     17   CL              -0.01 -0.00  0.00   -0.00 -0.00 -0.00    0.00  0.00  0.00   
     18   CL               0.00  0.01  0.01    0.00  0.00  0.00   -0.00 -0.00 -0.00   
     19   CL              -0.00 -0.00 -0.00    0.00 -0.00 -0.00   -0.00 -0.00  0.00   

  Vibration                       46                  47                  48          
  Freq [cm^-1]                1504.7343           1593.2632           1619.9182       
  Irrep                           A                   A                   A           
  Reduced mass [u]              6.7383              1.9647              1.1425        
  Force const [mDyne/A]         8.9892              2.9385              1.7665        
  Turning point v=0 [a0]        0.1090              0.1961              0.2551        
  RMS dev v=0 [a0 u^1/2]        0.2000              0.1944              0.1928        
  Char temp [K]               2164.9743           2292.3475           2330.6980       
  ----------------------------------------------------------------------------------
      1   C                0.17  0.13  0.03    0.01 -0.00 -0.02    0.00 -0.01 -0.03   
      2   O                0.15  0.09  0.03    0.00 -0.01 -0.02   -0.00  0.00 -0.01   
      3   C               -0.22 -0.25 -0.21   -0.00  0.01  0.01   -0.02 -0.01  0.02   
      4   C               -0.19 -0.09  0.13    0.02  0.02  0.01    0.03  0.02  0.01   
      5   H                0.09  0.25  0.38   -0.06 -0.05 -0.05   -0.08 -0.08 -0.06   
      6   O               -0.02  0.00 -0.02   -0.03  0.01 -0.00    0.00 -0.00 -0.00   
      7   C                0.26  0.22  0.08   -0.01 -0.01 -0.01   -0.00 -0.01 -0.03   
      8   C               -0.06 -0.13 -0.20   -0.00 -0.00  0.01   -0.02 -0.01  0.01   
      9   C               -0.09 -0.02  0.11    0.00  0.01  0.01    0.02  0.02  0.02   
     10   H                0.06  0.15  0.24   -0.04 -0.04 -0.02   -0.08 -0.08 -0.05   
     11   C               -0.06  0.01 -0.02   -0.16  0.09  0.07   -0.03 -0.01 -0.07   
     12   H               -0.28  0.11  0.13    0.54 -0.27 -0.18    0.03 -0.29  0.62   
     13   H                0.22  0.05  0.07    0.55 -0.34 -0.14    0.41  0.44  0.35   
     14   C                0.07 -0.04  0.01    0.18 -0.09 -0.02   -0.01  0.00  0.00   
     15   O               -0.02  0.02  0.01   -0.05  0.03  0.01    0.00 -0.00 -0.00   
     16   H               -0.15  0.03 -0.09   -0.22  0.05 -0.14    0.03 -0.01  0.02   
     17   CL               0.00  0.00  0.01    0.00  0.00 -0.00    0.00  0.00 -0.00   
     18   CL              -0.01 -0.01 -0.00    0.00  0.00  0.00   -0.00  0.00  0.00   
     19   CL              -0.01 -0.01 -0.01    0.00  0.00  0.00    0.00  0.00  0.00   

  Vibration                       49                  50                  51          
  Freq [cm^-1]                1653.1109           1741.9514           1790.5590       
  Irrep                           A                   A                   A           
  Reduced mass [u]              2.7438             10.0739              6.5063        
  Force const [mDyne/A]         4.4178             18.0102             12.2903        
  Turning point v=0 [a0]        0.1629              0.0828              0.1017        
  RMS dev v=0 [a0 u^1/2]        0.1908              0.1859              0.1834        
  Char temp [K]               2378.4550           2506.2763           2576.2119       
  ----------------------------------------------------------------------------------
      1   C                0.02  0.06  0.10    0.25  0.04 -0.33    0.21  0.15 -0.00   
      2   O               -0.06 -0.03  0.00    0.04  0.02 -0.02    0.03  0.02  0.00   
      3   C                0.15  0.09 -0.04   -0.20  0.04  0.44   -0.18 -0.17 -0.11   
      4   C               -0.07 -0.09 -0.08    0.08 -0.02 -0.19    0.25  0.25  0.16   
      5   H                0.34  0.33  0.19    0.12  0.01 -0.20   -0.33 -0.34 -0.24   
      6   O               -0.00 -0.00  0.00   -0.00 -0.00 -0.00   -0.00 -0.00 -0.00   
      7   C               -0.06  0.01  0.13   -0.24 -0.05  0.30   -0.18 -0.14 -0.02   
      8   C                0.12  0.06 -0.08    0.12 -0.08 -0.40    0.11  0.12  0.10   
      9   C               -0.13 -0.12 -0.06   -0.04  0.06  0.20   -0.24 -0.23 -0.13   
     10   H                0.36  0.38  0.27   -0.24 -0.12  0.11    0.27  0.29  0.21   
     11   C               -0.03  0.00 -0.02    0.01 -0.01  0.00    0.02 -0.01  0.00   
     12   H                0.14 -0.20  0.26   -0.10  0.09 -0.07   -0.05  0.07 -0.04   
     13   H                0.25  0.16  0.14   -0.11 -0.03 -0.03   -0.09 -0.01 -0.01   
     14   C                0.00 -0.00 -0.00   -0.00  0.00  0.00   -0.00  0.00  0.01   
     15   O                0.00 -0.00 -0.00    0.00 -0.00  0.00   -0.00  0.00  0.00   
     16   H                0.00  0.00 -0.00    0.00 -0.00  0.00   -0.00  0.00  0.00   
     17   CL              -0.01 -0.00  0.00   -0.00 -0.00  0.00   -0.00 -0.00 -0.00   
     18   CL              -0.00 -0.00 -0.01   -0.00  0.00  0.01   -0.00 -0.00  0.00   
     19   CL               0.00 -0.00 -0.01    0.00 -0.00 -0.00    0.00  0.00  0.00   

  Vibration                       52                  53                  54          
  Freq [cm^-1]                2053.7042           3256.5869           3317.1077       
  Irrep                           A                   A                   A           
  Reduced mass [u]             10.6138              1.0627              1.1041        
  Force const [mDyne/A]        26.3752              6.6402              7.1577        
  Turning point v=0 [a0]        0.0743              0.1865              0.1813        
  RMS dev v=0 [a0 u^1/2]        0.1712              0.1360              0.1347        
  Char temp [K]               2954.8186           4685.4964           4772.5721       
  ----------------------------------------------------------------------------------
      1   C               -0.00 -0.00  0.00   -0.00 -0.00 -0.00    0.00  0.00  0.00   
      2   O               -0.02  0.00 -0.00   -0.00 -0.00 -0.00   -0.00  0.00  0.00   
      3   C                0.01  0.01  0.00    0.00  0.00  0.00    0.00  0.00 -0.00   
      4   C               -0.00 -0.00  0.00   -0.00 -0.00 -0.00   -0.00  0.00  0.00   
      5   H               -0.03 -0.00 -0.02    0.00  0.00 -0.00    0.00 -0.00 -0.00   
      6   O               -0.14 -0.10 -0.43    0.00  0.00  0.00   -0.00 -0.00  0.00   
      7   C                0.00 -0.00 -0.00    0.00  0.00 -0.00    0.00  0.00  0.00   
      8   C               -0.00 -0.00 -0.00   -0.00  0.00  0.00    0.00  0.00 -0.00   
      9   C                0.00  0.00  0.00   -0.00  0.00  0.00   -0.00 -0.00  0.00   
     10   H               -0.00 -0.00 -0.00   -0.00 -0.00 -0.00    0.00  0.00 -0.00   
     11   C                0.03 -0.03 -0.05   -0.01  0.01 -0.07   -0.04 -0.08  0.01   
     12   H                0.06 -0.03 -0.10    0.26  0.40  0.13    0.46  0.70  0.25   
     13   H                0.02 -0.07 -0.08   -0.11 -0.52  0.69    0.06  0.28 -0.39   
     14   C                0.18  0.18  0.71   -0.00  0.00 -0.00   -0.00 -0.00 -0.00   
     15   O               -0.03 -0.01 -0.06    0.00 -0.00 -0.00    0.00 -0.00 -0.00   
     16   H                0.34 -0.06  0.25    0.00  0.00  0.00    0.00  0.00  0.00   
     17   CL               0.00  0.00 -0.00    0.00  0.00  0.00   -0.00 -0.00  0.00   
     18   CL              -0.00 -0.00 -0.00    0.00 -0.00  0.00   -0.00  0.00  0.00   
     19   CL               0.00 -0.00 -0.00   -0.00 -0.00 -0.00   -0.00 -0.00 -0.00   

  Vibration                       55                  56                  57          
  Freq [cm^-1]                3421.3632           3439.1621           4050.0249       
  Irrep                           A                   A                   A           
  Reduced mass [u]              1.0940              1.0941              1.0653        
  Force const [mDyne/A]         7.5451              7.6244             10.2955        
  Turning point v=0 [a0]        0.1794              0.1789              0.1670        
  RMS dev v=0 [a0 u^1/2]        0.1326              0.1323              0.1219        
  Char temp [K]               4922.5723           4948.1810           5827.0753       
  ----------------------------------------------------------------------------------
      1   C               -0.00 -0.00 -0.00    0.00  0.00  0.00   -0.00 -0.00 -0.00   
      2   O                0.00  0.00 -0.00   -0.00 -0.00 -0.00   -0.00  0.00  0.00   
      3   C               -0.00  0.00  0.00    0.00  0.00  0.00    0.00  0.00 -0.00   
      4   C                0.00  0.00 -0.00    0.05  0.00 -0.07   -0.00 -0.00 -0.00   
      5   H               -0.02 -0.00  0.03   -0.54 -0.03  0.84    0.00  0.00  0.00   
      6   O                0.00 -0.00 -0.00    0.00  0.00 -0.00   -0.00  0.00 -0.00   
      7   C               -0.00 -0.00  0.00   -0.00 -0.00  0.00    0.00  0.00  0.00   
      8   C                0.00  0.00  0.00   -0.00 -0.00  0.00    0.00  0.00 -0.00   
      9   C                0.05  0.00 -0.07   -0.00 -0.00  0.00   -0.00 -0.00 -0.00   
     10   H               -0.54 -0.02  0.84    0.02  0.00 -0.03   -0.00 -0.00  0.00   
     11   C               -0.00 -0.00 -0.00   -0.00 -0.00 -0.00   -0.00  0.00  0.00   
     12   H                0.00  0.00  0.00    0.00  0.00  0.00   -0.00 -0.00 -0.00   
     13   H                0.00 -0.00 -0.00    0.00 -0.00  0.00   -0.00  0.00 -0.00   
     14   C               -0.00  0.00  0.00   -0.00  0.00  0.00    0.00 -0.00 -0.00   
     15   O               -0.00 -0.00 -0.00    0.00  0.00 -0.00    0.03 -0.03 -0.04   
     16   H                0.00 -0.00 -0.00    0.00  0.00  0.00   -0.51  0.49  0.70   
     17   CL              -0.00 -0.00  0.00   -0.00 -0.00  0.00   -0.00 -0.00  0.00   
     18   CL               0.00  0.00  0.00   -0.00 -0.00 -0.00    0.00  0.00  0.00   
     19   CL               0.00 -0.00 -0.00    0.00  0.00  0.00   -0.00 -0.00 -0.00   

  ==> Thermochemistry Components <==

  Entropy, S
    Electronic S            0.000 [cal/(mol K)]        0.000 [J/(mol K)]       0.00000000 [mEh/K] (multiplicity = 1)
    Translational S        42.496 [cal/(mol K)]      177.803 [J/(mol K)]       0.06772143 [mEh/K] (mol. weight = 253.9304 [u], P = 101325.00 [Pa])
    Rotational S           33.256 [cal/(mol K)]      139.142 [J/(mol K)]       0.05299638 [mEh/K] (symmetry no. = 1)
    Vibrational S          39.989 [cal/(mol K)]      167.315 [J/(mol K)]       0.06372695 [mEh/K]
  Total S                 115.741 [cal/(mol K)]      484.260 [J/(mol K)]       0.18444476 [mEh/K]
  Correction S              0.000 [cal/(mol K)]        0.000 [J/(mol K)]       0.00000000 [mEh/K]

  Constant volume heat capacity, Cv
    Electronic Cv           0.000 [cal/(mol K)]        0.000 [J/(mol K)]       0.00000000 [mEh/K]
    Translational Cv        2.981 [cal/(mol K)]       12.472 [J/(mol K)]       0.00475022 [mEh/K]
    Rotational Cv           2.981 [cal/(mol K)]       12.472 [J/(mol K)]       0.00475022 [mEh/K]
    Vibrational Cv         38.152 [cal/(mol K)]      159.629 [J/(mol K)]       0.06079962 [mEh/K]
  Total Cv                 44.114 [cal/(mol K)]      184.573 [J/(mol K)]       0.07030007 [mEh/K]
  Correction Cv             0.000 [cal/(mol K)]        0.000 [J/(mol K)]       0.00000000 [mEh/K]

  Constant pressure heat capacity, Cp
    Electronic Cp           0.000 [cal/(mol K)]        0.000 [J/(mol K)]       0.00000000 [mEh/K]
    Translational Cp        4.968 [cal/(mol K)]       20.786 [J/(mol K)]       0.00791704 [mEh/K]
    Rotational Cp           2.981 [cal/(mol K)]       12.472 [J/(mol K)]       0.00475022 [mEh/K]
    Vibrational Cp         38.152 [cal/(mol K)]      159.629 [J/(mol K)]       0.06079962 [mEh/K]
  Total Cp                 46.101 [cal/(mol K)]      192.887 [J/(mol K)]       0.07346688 [mEh/K]
  Correction Cp             0.000 [cal/(mol K)]        0.000 [J/(mol K)]       0.00000000 [mEh/K]

  ==> Thermochemistry Energy Analysis <==

  Raw electronic energy, E0
  Total E0, Electronic energy at well bottom at 0 [K]                -1908.88268631 [Eh]

  Zero-point energy, ZPE_vib = Sum_i nu_i / 2
    Electronic ZPE          0.000 [kcal/mol]        0.000 [kJ/mol]       0.00000000 [Eh]
    Translational ZPE       0.000 [kcal/mol]        0.000 [kJ/mol]       0.00000000 [Eh]
    Rotational ZPE          0.000 [kcal/mol]        0.000 [kJ/mol]       0.00000000 [Eh]
    Vibrational ZPE        81.193 [kcal/mol]      339.711 [kJ/mol]       0.12938893 [Eh]       28397.584 [cm^-1]
  Correction ZPE           81.193 [kcal/mol]      339.711 [kJ/mol]       0.12938893 [Eh]       28397.584 [cm^-1]
  Total ZPE, Electronic energy at 0 [K]                              -1908.75329738 [Eh]

  Thermal Energy, E (includes ZPE)
    Electronic E            0.000 [kcal/mol]        0.000 [kJ/mol]       0.00000000 [Eh]
    Translational E         0.889 [kcal/mol]        3.718 [kJ/mol]       0.00141628 [Eh]
    Rotational E            0.889 [kcal/mol]        3.718 [kJ/mol]       0.00141628 [Eh]
    Vibrational E          87.223 [kcal/mol]      364.942 [kJ/mol]       0.13899917 [Eh]
  Correction E             89.001 [kcal/mol]      372.379 [kJ/mol]       0.14183173 [Eh]
  Total E, Electronic energy at  298.15 [K]                          -1908.74085458 [Eh]

  Enthalpy, H_trans = E_trans + k_B * T
    Electronic H            0.000 [kcal/mol]        0.000 [kJ/mol]       0.00000000 [Eh]
    Translational H         1.481 [kcal/mol]        6.197 [kJ/mol]       0.00236046 [Eh]
    Rotational H            0.889 [kcal/mol]        3.718 [kJ/mol]       0.00141628 [Eh]
    Vibrational H          87.223 [kcal/mol]      364.942 [kJ/mol]       0.13899917 [Eh]
  Correction H             89.593 [kcal/mol]      374.858 [kJ/mol]       0.14277592 [Eh]
  Total H, Enthalpy at  298.15 [K]                                   -1908.73991039 [Eh]

  Gibbs free energy, G = H - T * S
    Electronic G            0.000 [kcal/mol]        0.000 [kJ/mol]       0.00000000 [Eh]
    Translational G       -11.189 [kcal/mol]      -46.814 [kJ/mol]      -0.01783068 [Eh]
    Rotational G           -9.026 [kcal/mol]      -37.767 [kJ/mol]      -0.01438459 [Eh]
    Vibrational G          75.301 [kcal/mol]      315.057 [kJ/mol]       0.11999898 [Eh]
  Correction G             55.085 [kcal/mol]      230.476 [kJ/mol]       0.08778371 [Eh]
  Total G, Free enthalpy at  298.15 [K]                              -1908.79490260 [Eh]

    Psi4 stopped on: Wednesday, 26 September 2018 04:17PM
    Psi4 wall time for execution: 0:24:50.10

*** Psi4 exiting successfully. Buy a developer a beer!
