
    -----------------------------------------------------------------------
          Psi4: An Open-Source Ab Initio Electronic Structure Package
                               Psi4 1.2.1 release

                         Git: Rev {HEAD} 406f4de 


    R. M. Parrish, L. A. Burns, D. G. A. Smith, A. C. Simmonett,
    A. E. DePrince III, E. G. Hohenstein, U. Bozkaya, A. Yu. Sokolov,
    R. Di Remigio, R. M. Richard, J. F. Gonthier, A. M. James,
    H. R. McAlexander, A. Kumar, M. Saitow, X. Wang, B. P. Pritchard,
    P. Verma, H. F. Schaefer III, K. Patkowski, R. A. King, E. F. Valeev,
    F. A. Evangelista, J. M. Turney, T. D. Crawford, and C. D. Sherrill,
    J. Chem. Theory Comput. 13(7) pp 3185--3197 (2017).
    (doi: 10.1021/acs.jctc.7b00174)


                         Additional Contributions by
    P. Kraus, H. Kruse, M. H. Lechner, M. C. Schieber, and R. A. Shaw

    -----------------------------------------------------------------------


    Psi4 started on: Wednesday, 26 September 2018 03:39PM

    Process ID: 431456
    Host:       wr53
    PSIDATADIR: /usr/local/hpc1/software_molmod/psi4/psi4conda/share/psi4
    Memory:     500.0 MiB
    Threads:    16
    
  ==> Input File <==

--------------------------------------------------------------------------
memory 110 Gb

molecule conf2 {
0 1
C          4.89200        2.42600        0.27000
O          3.08700        1.55700        1.57900
C          4.16800        2.36400        1.45500
C          4.60400        3.09300        2.54600
H          4.05200        3.02900        3.46200
O          1.37400        2.93700        3.21100
C          5.73500        3.88500        2.46400
C          6.44500        3.95400        1.27400
C          6.01800        3.21800        0.18200
H          6.57100        3.26000       -0.73500
C          1.85900        2.01700        1.08900
H          1.29800        1.14900        0.77300
H          1.97800        2.66500        0.23100
C          1.00100        2.75300        2.09900
O         -0.15900        3.18800        1.63700
H         -0.60300        3.65000        2.34300
Cl         7.86500        4.92900        1.10500
Cl         4.40500        1.49200       -1.10900
Cl         6.22200        4.77100        3.86900
}
set globals {
  reference rhf
  g_convergence gau_tight
  basis 6-31G(d)
}
optimize('scf')
print_variables()
--------------------------------------------------------------------------

  Memory set to 102.445 GiB by Python driver.
gradient() will perform analytic gradient computation.

*** tstart() called on wr53
*** at Wed Sep 26 15:39:32 2018

   => Loading Basis Set <=

    Name: 6-31G(D)
    Role: ORBITAL
    Keyword: BASIS
    atoms 1, 3-4, 7-9, 11, 14 entry C          line   111 file /usr/local/hpc1/software_molmod/psi4/psi4conda/share/psi4/basis/6-31g_d_.gbs 
    atoms 2, 6, 15            entry O          line   145 file /usr/local/hpc1/software_molmod/psi4/psi4conda/share/psi4/basis/6-31g_d_.gbs 
    atoms 5, 10, 12-13, 16    entry H          line    44 file /usr/local/hpc1/software_molmod/psi4/psi4conda/share/psi4/basis/6-31g_d_.gbs 
    atoms 17-19               entry CL         line   340 file /usr/local/hpc1/software_molmod/psi4/psi4conda/share/psi4/basis/6-31g_d_.gbs 


         ---------------------------------------------------------
                                   SCF
            by Justin Turney, Rob Parrish, Andy Simmonett
                             and Daniel Smith
                              RHF Reference
                       16 Threads, 104904 MiB Core
         ---------------------------------------------------------

  ==> Geometry <==

    Molecular point group: c1
    Full point group: C1

    Geometry (in Angstrom), charge = 0, multiplicity = 1:

       Center              X                  Y                   Z               Mass       
    ------------   -----------------  -----------------  -----------------  -----------------
         C            0.380850228169    -0.774187391416    -1.228928133662    12.000000000000
         O           -1.424149771831    -1.643187391416     0.080071866338    15.994914619560
         C           -0.343149771831    -0.836187391416    -0.043928133662    12.000000000000
         C            0.092850228169    -0.107187391416     1.047071866338    12.000000000000
         H           -0.459149771831    -0.171187391416     1.963071866338     1.007825032070
         O           -3.137149771831    -0.263187391416     1.712071866338    15.994914619560
         C            1.223850228169     0.684812608584     0.965071866338    12.000000000000
         C            1.933850228169     0.753812608584    -0.224928133662    12.000000000000
         C            1.506850228169     0.017812608584    -1.316928133662    12.000000000000
         H            2.059850228169     0.059812608584    -2.233928133662     1.007825032070
         C           -2.652149771831    -1.183187391416    -0.409928133662    12.000000000000
         H           -3.213149771831    -2.051187391416    -0.725928133662     1.007825032070
         H           -2.533149771831    -0.535187391416    -1.267928133662     1.007825032070
         C           -3.510149771831    -0.447187391416     0.600071866338    12.000000000000
         O           -4.670149771831    -0.012187391416     0.138071866338    15.994914619560
         H           -5.114149771831     0.449812608584     0.844071866338     1.007825032070
         CL           3.353850228169     1.728812608584    -0.393928133662    34.968852682000
         CL          -0.106149771831    -1.708187391416    -2.607928133662    34.968852682000
         CL           1.710850228169     1.570812608584     2.370071866338    34.968852682000

  Running in c1 symmetry.

  Rotational constants: A =      0.02143  B =      0.01017  C =      0.00736 [cm^-1]
  Rotational constants: A =    642.59508  B =    304.93328  C =    220.78633 [MHz]
  Nuclear repulsion = 1184.000798839954541

  Charge       = 0
  Multiplicity = 1
  Electrons    = 128
  Nalpha       = 64
  Nbeta        = 64

  ==> Algorithm <==

  SCF Algorithm Type is DF.
  DIIS enabled.
  MOM disabled.
  Fractional occupation disabled.
  Guess Type is SAD.
  Energy threshold   = 1.00e-08
  Density threshold  = 1.00e-08
  Integral threshold = 0.00e+00

  ==> Primary Basis <==

  Basis Set: 6-31G(D)
    Blend: 6-31G(D)
    Number of shells: 100
    Number of basis function: 232
    Number of Cartesian functions: 232
    Spherical Harmonics?: false
    Max angular momentum: 2

   => Loading Basis Set <=

    Name: (6-31G(D) AUX)
    Role: JKFIT
    Keyword: DF_BASIS_SCF
    atoms 1, 3-4, 7-9, 11, 14 entry C          line   121 file /usr/local/hpc1/software_molmod/psi4/psi4conda/share/psi4/basis/cc-pvdz-jkfit.gbs 
    atoms 2, 6, 15            entry O          line   221 file /usr/local/hpc1/software_molmod/psi4/psi4conda/share/psi4/basis/cc-pvdz-jkfit.gbs 
    atoms 5, 10, 12-13, 16    entry H          line    51 file /usr/local/hpc1/software_molmod/psi4/psi4conda/share/psi4/basis/cc-pvdz-jkfit.gbs 
    atoms 17-19               entry CL         line   667 file /usr/local/hpc1/software_molmod/psi4/psi4conda/share/psi4/basis/cc-pvdz-jkfit.gbs 

  ==> Pre-Iterations <==

   -------------------------------------------------------
    Irrep   Nso     Nmo     Nalpha   Nbeta   Ndocc  Nsocc
   -------------------------------------------------------
     A        232     232       0       0       0       0
   -------------------------------------------------------
    Total     232     232      64      64      64       0
   -------------------------------------------------------

  ==> Integral Setup <==

  ==> DiskDFJK: Density-Fitted J/K Matrices <==

    J tasked:                  Yes
    K tasked:                  Yes
    wK tasked:                  No
    OpenMP threads:             16
    Integrals threads:          16
    Memory (MB):             78678
    Algorithm:                Core
    Integral Cache:           NONE
    Schwarz Cutoff:          1E-12
    Fitting Condition:       1E-12

   => Auxiliary Basis Set <=

  Basis Set: (6-31G(D) AUX)
    Blend: CC-PVDZ-JKFIT
    Number of shells: 417
    Number of basis function: 1406
    Number of Cartesian functions: 1406
    Spherical Harmonics?: false
    Max angular momentum: 3

  Minimum eigenvalue in the overlap matrix is 3.6738902189E-04.
  Using Symmetric Orthogonalization.

  SCF Guess: Superposition of Atomic Densities via on-the-fly atomic UHF.

  ==> Iterations <==

                           Total Energy        Delta E     RMS |[F,P]|

   @DF-RHF iter   0: -1914.84261754512545   -1.91484e+03   3.68057e-02 
   @DF-RHF iter   1: -1908.46294263538493    6.37967e+00   5.49814e-03 
   @DF-RHF iter   2: -1908.76706251188784   -3.04120e-01   3.09348e-03 DIIS
   @DF-RHF iter   3: -1908.86260122580688   -9.55387e-02   9.85458e-04 DIIS
   @DF-RHF iter   4: -1908.87784858134182   -1.52474e-02   2.92708e-04 DIIS
   @DF-RHF iter   5: -1908.87948607442149   -1.63749e-03   1.38070e-04 DIIS
   @DF-RHF iter   6: -1908.87977924252482   -2.93168e-04   3.16037e-05 DIIS
   @DF-RHF iter   7: -1908.87981003982713   -3.07973e-05   1.33163e-05 DIIS
   @DF-RHF iter   8: -1908.87981283675981   -2.79693e-06   4.22488e-06 DIIS
   @DF-RHF iter   9: -1908.87981347625259   -6.39493e-07   1.94118e-06 DIIS
   @DF-RHF iter  10: -1908.87981366557619   -1.89324e-07   1.25076e-06 DIIS
   @DF-RHF iter  11: -1908.87981369927479   -3.36986e-08   3.85758e-07 DIIS
   @DF-RHF iter  12: -1908.87981370288799   -3.61320e-09   1.19133e-07 DIIS
   @DF-RHF iter  13: -1908.87981370318744   -2.99451e-10   3.54512e-08 DIIS
   @DF-RHF iter  14: -1908.87981370322564   -3.81988e-11   9.48758e-09 DIIS

  ==> Post-Iterations <==

    Orbital Energies [Eh]
    ---------------------

    Doubly Occupied:                                                      

       1A   -104.848042     2A   -104.843595     3A   -104.841688  
       4A    -20.641759     5A    -20.615873     6A    -20.571956  
       7A    -11.404239     8A    -11.333727     9A    -11.331204  
      10A    -11.329732    11A    -11.326172    12A    -11.323850  
      13A    -11.279774    14A    -11.267478    15A    -10.581101  
      16A    -10.576837    17A    -10.574954    18A     -8.050544  
      19A     -8.047107    20A     -8.047050    21A     -8.046286  
      22A     -8.044401    23A     -8.042752    24A     -8.042752  
      25A     -8.040874    26A     -8.040843    27A     -1.503049  
      28A     -1.447129    29A     -1.389520    30A     -1.240201  
      31A     -1.184038    32A     -1.150259    33A     -1.110983  
      34A     -1.054195    35A     -1.019278    36A     -0.981174  
      37A     -0.880111    38A     -0.865883    39A     -0.814146  
      40A     -0.745701    41A     -0.740762    42A     -0.723149  
      43A     -0.705167    44A     -0.693349    45A     -0.671042  
      46A     -0.651454    47A     -0.640230    48A     -0.614334  
      49A     -0.604856    50A     -0.589741    51A     -0.572177  
      52A     -0.560820    53A     -0.545158    54A     -0.527702  
      55A     -0.500285    56A     -0.499342    57A     -0.496670  
      58A     -0.481870    59A     -0.472988    60A     -0.458128  
      61A     -0.455991    62A     -0.453234    63A     -0.361693  
      64A     -0.343363  

    Virtual:                                                              

      65A      0.101413    66A      0.108593    67A      0.152826  
      68A      0.176759    69A      0.206202    70A      0.210681  
      71A      0.237316    72A      0.244460    73A      0.292641  
      74A      0.298982    75A      0.308992    76A      0.322716  
      77A      0.333616    78A      0.391436    79A      0.408319  
      80A      0.430188    81A      0.439478    82A      0.456767  
      83A      0.475938    84A      0.488351    85A      0.526492  
      86A      0.530824    87A      0.561661    88A      0.571004  
      89A      0.586342    90A      0.601879    91A      0.607567  
      92A      0.623098    93A      0.633051    94A      0.639954  
      95A      0.655842    96A      0.664437    97A      0.669515  
      98A      0.683233    99A      0.709963   100A      0.713766  
     101A      0.737988   102A      0.767398   103A      0.774871  
     104A      0.782487   105A      0.806756   106A      0.815140  
     107A      0.819430   108A      0.846509   109A      0.854801  
     110A      0.880306   111A      0.892366   112A      0.919080  
     113A      0.931390   114A      0.940251   115A      0.958021  
     116A      0.965618   117A      0.992057   118A      1.007250  
     119A      1.027718   120A      1.047955   121A      1.053579  
     122A      1.064057   123A      1.083615   124A      1.090639  
     125A      1.111763   126A      1.119347   127A      1.125706  
     128A      1.134353   129A      1.134824   130A      1.138727  
     131A      1.145814   132A      1.161688   133A      1.181028  
     134A      1.185171   135A      1.190185   136A      1.200213  
     137A      1.207184   138A      1.221265   139A      1.237511  
     140A      1.263026   141A      1.273679   142A      1.291023  
     143A      1.301362   144A      1.324400   145A      1.340796  
     146A      1.363189   147A      1.393332   148A      1.413507  
     149A      1.423280   150A      1.439356   151A      1.451956  
     152A      1.474335   153A      1.506665   154A      1.524466  
     155A      1.560300   156A      1.590460   157A      1.612182  
     158A      1.662383   159A      1.669073   160A      1.676298  
     161A      1.687754   162A      1.738504   163A      1.764079  
     164A      1.786476   165A      1.797551   166A      1.812662  
     167A      1.830637   168A      1.887978   169A      1.895450  
     170A      1.944800   171A      2.005345   172A      2.024493  
     173A      2.037877   174A      2.057894   175A      2.074313  
     176A      2.092449   177A      2.125430   178A      2.142932  
     179A      2.199465   180A      2.227052   181A      2.231629  
     182A      2.236830   183A      2.269119   184A      2.324500  
     185A      2.340460   186A      2.366480   187A      2.375585  
     188A      2.387585   189A      2.417317   190A      2.425082  
     191A      2.452195   192A      2.473820   193A      2.520731  
     194A      2.579367   195A      2.588128   196A      2.599865  
     197A      2.618499   198A      2.737981   199A      2.772301  
     200A      2.786809   201A      2.841453   202A      2.851090  
     203A      2.892203   204A      2.971131   205A      2.985213  
     206A      3.021675   207A      3.064744   208A      3.075268  
     209A      3.081883   210A      3.124247   211A      3.164581  
     212A      3.192544   213A      3.282526   214A      3.364057  
     215A      3.422107   216A      3.496719   217A      3.500663  
     218A      3.714502   219A      4.220733   220A      4.428461  
     221A      4.449907   222A      4.474758   223A      4.517808  
     224A      4.557396   225A      4.658891   226A      4.676022  
     227A      4.731115   228A      4.753886   229A      4.806128  
     230A      4.861948   231A      4.935410   232A      5.147689  

    Final Occupation by Irrep:
              A 
    DOCC [    64 ]

  Energy converged.

  @DF-RHF Final Energy: -1908.87981370322564

   => Energetics <=

    Nuclear Repulsion Energy =           1184.0007988399545411
    One-Electron Energy =               -4986.0737084788406719
    Two-Electron Energy =                1893.1930959356602671
    Total Energy =                      -1908.8798137032256363



Properties will be evaluated at   0.000000,   0.000000,   0.000000 [a0]

Properties computed using the SCF density matrix

  Nuclear Dipole Moment: [e a0]
     X:   -13.2643      Y:    -3.5734      Z:    -0.7442

  Electronic Dipole Moment: [e a0]
     X:    12.1147      Y:     3.6632      Z:     0.0987

  Dipole Moment: [e a0]
     X:    -1.1496      Y:     0.0898      Z:    -0.6454     Total:     1.3215

  Dipole Moment: [D]
     X:    -2.9221      Y:     0.2282      Z:    -1.6405     Total:     3.3589


*** tstop() called on wr53 at Wed Sep 26 15:39:45 2018
Module time:
	user time   =      91.63 seconds =       1.53 minutes
	system time =       4.94 seconds =       0.08 minutes
	total time  =         13 seconds =       0.22 minutes
Total time:
	user time   =      91.63 seconds =       1.53 minutes
	system time =       4.94 seconds =       0.08 minutes
	total time  =         13 seconds =       0.22 minutes

*** tstart() called on wr53
*** at Wed Sep 26 15:39:45 2018


         ------------------------------------------------------------
                                   SCF GRAD                          
                          Rob Parrish, Justin Turney,                
                       Andy Simmonett, and Alex Sokolov              
         ------------------------------------------------------------

  ==> Geometry <==

    Molecular point group: c1
    Full point group: C1

    Geometry (in Angstrom), charge = 0, multiplicity = 1:

       Center              X                  Y                   Z               Mass       
    ------------   -----------------  -----------------  -----------------  -----------------
         C            0.380850228169    -0.774187391416    -1.228928133662    12.000000000000
         O           -1.424149771831    -1.643187391416     0.080071866338    15.994914619560
         C           -0.343149771831    -0.836187391416    -0.043928133662    12.000000000000
         C            0.092850228169    -0.107187391416     1.047071866338    12.000000000000
         H           -0.459149771831    -0.171187391416     1.963071866338     1.007825032070
         O           -3.137149771831    -0.263187391416     1.712071866338    15.994914619560
         C            1.223850228169     0.684812608584     0.965071866338    12.000000000000
         C            1.933850228169     0.753812608584    -0.224928133662    12.000000000000
         C            1.506850228169     0.017812608584    -1.316928133662    12.000000000000
         H            2.059850228169     0.059812608584    -2.233928133662     1.007825032070
         C           -2.652149771831    -1.183187391416    -0.409928133662    12.000000000000
         H           -3.213149771831    -2.051187391416    -0.725928133662     1.007825032070
         H           -2.533149771831    -0.535187391416    -1.267928133662     1.007825032070
         C           -3.510149771831    -0.447187391416     0.600071866338    12.000000000000
         O           -4.670149771831    -0.012187391416     0.138071866338    15.994914619560
         H           -5.114149771831     0.449812608584     0.844071866338     1.007825032070
         CL           3.353850228169     1.728812608584    -0.393928133662    34.968852682000
         CL          -0.106149771831    -1.708187391416    -2.607928133662    34.968852682000
         CL           1.710850228169     1.570812608584     2.370071866338    34.968852682000

  Nuclear repulsion = 1184.000798839954541

  ==> Basis Set <==

  Basis Set: 6-31G(D)
    Blend: 6-31G(D)
    Number of shells: 100
    Number of basis function: 232
    Number of Cartesian functions: 232
    Spherical Harmonics?: false
    Max angular momentum: 2

  ==> DFJKGrad: Density-Fitted SCF Gradients <==

    Gradient:                    1
    J tasked:                  Yes
    K tasked:                  Yes
    wK tasked:                  No
    OpenMP threads:             16
    Integrals threads:          16
    Memory (MB):             78678
    Schwarz Cutoff:          0E+00
    Fitting Condition:       1E-12

   => Auxiliary Basis Set <=

  Basis Set: (6-31G(D) AUX)
    Blend: CC-PVDZ-JKFIT
    Number of shells: 417
    Number of basis function: 1406
    Number of Cartesian functions: 1406
    Spherical Harmonics?: false
    Max angular momentum: 3


  -Total Gradient:
     Atom            X                  Y                   Z
    ------   -----------------  -----------------  -----------------
       1        0.001502075066     0.000777023456    -0.001478683240
       2        0.008703303556    -0.004075459659    -0.002008276031
       3       -0.001042023537    -0.002090326740    -0.000029359856
       4        0.000729817856     0.000778762895    -0.000960411788
       5        0.001000488307    -0.000291687874     0.000380125071
       6        0.007605600405    -0.003523773104    -0.003127557210
       7       -0.000671654853    -0.000311963505     0.000707956908
       8        0.001075750148     0.000784738235    -0.000359732464
       9       -0.001060511186    -0.000767489595     0.000113731278
      10       -0.000103336860    -0.000016000141     0.000133610852
      11        0.013131004115     0.001290117686     0.013013395516
      12       -0.001340608168     0.001428926487     0.002684567826
      13       -0.001660122791     0.001102280935     0.002296329141
      14       -0.024601523574    -0.000477558840    -0.018828353225
      15       -0.002651212586     0.004867887320     0.006565449577
      16       -0.000079368001     0.000665360049     0.000282247138
      17       -0.000403364565    -0.000278516519     0.000145369617
      18       -0.000059628010     0.000105184594     0.000424312447
      19       -0.000074685501     0.000032494292     0.000045278485


*** tstop() called on wr53 at Wed Sep 26 15:39:54 2018
Module time:
	user time   =      62.72 seconds =       1.05 minutes
	system time =       1.84 seconds =       0.03 minutes
	total time  =          9 seconds =       0.15 minutes
Total time:
	user time   =     154.36 seconds =       2.57 minutes
	system time =       6.78 seconds =       0.11 minutes
	total time  =         22 seconds =       0.37 minutes

			-----------------------------------------
			 OPTKING 2.0: for geometry optimizations 
			  - R.A. King,  Bethel University        
			-----------------------------------------

	Internal coordinates to be generated automatically.
	Detected frag 1 with atoms:  1 2 3 4 5 6 7 8 9 10 11 12 13 14 15 16 17 18 19
	---Fragment 1 Bond Connectivity---
	 1 : 3 9 18
	 2 : 3 11
	 3 : 1 2 4
	 4 : 3 5 7
	 5 : 4
	 6 : 14
	 7 : 4 8 19
	 8 : 7 9 17
	 9 : 1 8 10
	 10 : 9
	 11 : 2 12 13 14
	 12 : 11
	 13 : 11
	 14 : 6 11 15
	 15 : 14 16
	 16 : 15
	 17 : 8
	 18 : 1
	 19 : 7

	---Fragment 1 Geometry and Gradient---
	 C           0.7197026289       -1.4630021453       -2.3223376096
	 O          -2.6912530410       -3.1051741548        0.1513138983
	 C          -0.6484590913       -1.5801651655       -0.0830121422
	 C           0.1754615026       -0.2025548147        1.9786790688
	 H          -0.8676673227       -0.3234972872        3.7096682066
	 O          -5.9283539066       -0.4973520914        3.2353469472
	 C           2.3127417589        1.2941082826        1.8237215259
	 C           3.6544473133        1.4244993857       -0.4250525722
	 C           2.8475342545        0.0336609519       -2.4886335093
	 H           3.8925528060        0.1130294495       -4.2215123732
	 C          -5.0118367322       -2.2359001337       -0.7746519068
	 H          -6.0719730927       -3.8761824170       -1.3718053648
	 H          -4.7869593223       -1.0113575996       -2.3960369288
	 C          -6.6332217542       -0.8450616999        1.1339714874
	 O          -8.8253040683       -0.0230308321        0.2609180140
	 H          -9.6643424713        0.8500226413        1.5950646639
	 CL          6.3378584220        3.2669823653       -0.7444162887
	 CL         -0.2005939978       -3.2280063534       -4.9282699469
	 CL          3.2330383856        2.9684056363        4.4787867426
	             0.0015020751        0.0007770235       -0.0014786832
	             0.0087033036       -0.0040754597       -0.0020082760
	            -0.0010420235       -0.0020903267       -0.0000293599
	             0.0007298179        0.0007787629       -0.0009604118
	             0.0010004883       -0.0002916879        0.0003801251
	             0.0076056004       -0.0035237731       -0.0031275572
	            -0.0006716549       -0.0003119635        0.0007079569
	             0.0010757501        0.0007847382       -0.0003597325
	            -0.0010605112       -0.0007674896        0.0001137313
	            -0.0001033369       -0.0000160001        0.0001336109
	             0.0131310041        0.0012901177        0.0130133955
	            -0.0013406082        0.0014289265        0.0026845678
	            -0.0016601228        0.0011022809        0.0022963291
	            -0.0246015236       -0.0004775588       -0.0188283532
	            -0.0026512126        0.0048678873        0.0065654496
	            -0.0000793680        0.0006653600        0.0002822471
	            -0.0004033646       -0.0002785165        0.0001453696
	            -0.0000596280        0.0001051846        0.0004243124
	            -0.0000746855        0.0000324943        0.0000452785

	Previous optimization step data not found.  Starting new optimization.

	---Fragment 1 Intrafragment Coordinates---
	 - Coordinate -           - BOHR/RAD -       - ANG/DEG -
	 R(1,3)           =         2.626818	       1.390052
	 R(1,9)           =         2.606784	       1.379451
	 R(1,18)          =         3.279187	       1.735271
	 R(2,3)           =         2.559994	       1.354690
	 R(2,11)          =         2.645403	       1.399887
	 R(3,4)           =         2.612896	       1.382685
	 R(4,5)           =         2.024616	       1.071380
	 R(4,7)           =         2.613805	       1.383166
	 R(6,14)          =         2.243551	       1.187236
	 R(7,8)           =         2.621862	       1.387430
	 R(7,19)          =         3.271023	       1.730951
	 R(8,9)           =         2.616086	       1.384373
	 R(8,17)          =         3.270693	       1.730776
	 R(9,10)          =         2.025150	       1.071663
	 R(11,12)         =         2.042304	       1.080741
	 R(11,13)         =         2.044251	       1.081771
	 R(11,14)         =         2.864640	       1.515902
	 R(14,15)         =         2.498636	       1.322221
	 R(15,16)         =         1.801709	       0.953423
	 B(1,3,2)         =         2.117903	     121.346895
	 B(1,3,4)         =         2.077041	     119.005685
	 B(1,9,8)         =         2.102141	     120.443780
	 B(1,9,10)        =         2.092432	     119.887498
	 B(2,3,4)         =         2.086878	     119.569310
	 B(2,11,12)       =         1.868978	     107.084543
	 B(2,11,13)       =         1.958389	     112.207434
	 B(2,11,14)       =         2.007362	     115.013379
	 B(3,1,9)         =         2.100339	     120.340572
	 B(3,1,18)        =         2.102822	     120.482823
	 B(3,2,11)        =         2.062582	     118.177249
	 B(3,4,5)         =         2.072194	     118.727946
	 B(3,4,7)         =         2.109422	     120.861005
	 B(4,7,8)         =         2.091819	     119.852385
	 B(4,7,19)        =         2.065788	     118.360915
	 B(5,4,7)         =         2.101550	     120.409949
	 B(6,14,11)       =         2.119371	     121.431016
	 B(6,14,15)       =         2.155451	     123.498235
	 B(7,8,9)         =         2.085500	     119.490337
	 B(7,8,17)        =         2.131303	     122.114693
	 B(8,7,19)        =         2.125578	     121.786629
	 B(8,9,10)        =         2.088591	     119.667441
	 B(9,1,18)        =         2.079924	     119.170888
	 B(9,8,17)        =         2.066364	     118.393948
	 B(11,14,15)      =         2.008088	     115.054943
	 B(12,11,13)      =         1.882096	     107.836147
	 B(12,11,14)      =         1.866021	     106.915105
	 B(13,11,14)      =         1.875359	     107.450136
	 B(14,15,16)      =         1.885189	     108.013376
	 D(1,3,2,11)      =        -1.435147	     -82.227885
	 D(1,3,4,5)       =        -3.123781	    -178.979493
	 D(1,3,4,7)       =         0.011179	       0.640518
	 D(1,9,8,7)       =         0.005609	       0.321386
	 D(1,9,8,17)      =         3.140920	     179.961478
	 D(2,3,1,9)       =        -3.100227	    -177.629938
	 D(2,3,1,18)      =         0.026059	       1.493083
	 D(2,3,4,5)       =        -0.037513	      -2.149319
	 D(2,3,4,7)       =         3.097448	     177.470691
	 D(2,11,14,6)     =         0.024248	       1.389297
	 D(2,11,14,15)    =         3.141444	     179.991462
	 D(3,1,9,8)       =         0.006676	       0.382486
	 D(3,1,9,10)      =         3.141058	     179.969380
	 D(3,2,11,12)     =         2.612009	     149.657113
	 D(3,2,11,13)     =         0.550130	      31.520104
	 D(3,2,11,14)     =        -1.600529	     -91.703562
	 D(3,4,7,8)       =         0.000965	       0.055293
	 D(3,4,7,19)      =         3.140890	     179.959729
	 D(4,3,1,9)       =        -0.014978	      -0.858195
	 D(4,3,1,18)      =         3.111308	     178.264826
	 D(4,3,2,11)      =         1.763101	     101.018252
	 D(4,7,8,9)       =        -0.009407	      -0.538997
	 D(4,7,8,17)      =         3.138710	     179.834812
	 D(5,4,7,8)       =         3.135814	     179.668921
	 D(5,4,7,19)      =        -0.007446	      -0.426643
	 D(6,14,11,12)    =         2.096547	     120.123293
	 D(6,14,11,13)    =        -2.170035	    -124.333862
	 D(6,14,15,16)    =        -0.001203	      -0.068909
	 D(7,8,9,10)      =        -3.128789	    -179.266414
	 D(8,9,1,18)      =        -3.119810	    -178.751974
	 D(9,8,7,19)      =         3.133912	     179.559935
	 D(10,9,1,18)     =         0.014572	       0.834919
	 D(10,9,8,17)     =         0.006522	       0.373678
	 D(11,14,15,16)   =        -3.117832	    -178.638605
	 D(12,11,14,15)   =        -1.069443	     -61.274542
	 D(13,11,14,15)   =         0.947161	      54.268304
	 D(17,8,7,19)     =        -0.001156	      -0.066256
	 R(3,6)           =         6.329398	       3.349373
	 R(4,6)           =         6.238805	       3.301433
	 R(4,14)          =         6.890901	       3.646508
	 R(11,18)         =         6.433108	       3.404254

	Current energy   :     -1908.8798137032

	Generating empirical Hessian (Schlegel '84) for each fragment.
	Taking RFO optimization step.
	Going to follow RFO solution 1.
	Using RFO vector 1.
	Norm of target step-size    0.29768
	Projected energy change by RFO approximation:        -0.0085852626

	Back-transformation to cartesian coordinates...
	Could not converge backtransformation.
	Using first guess instead.

	--- Internal Coordinate Step in ANG or DEG, aJ/ANG or AJ/DEG ---
	 ---------------------------------------------------------------------------
	   Coordinate                Previous        Force       Change         New 
	   ----------                --------       ------       ------       ------
	    1 R(1,3)          =      1.390052    -0.003617    -0.000547     1.389505
	    2 R(1,9)          =      1.379451     0.007827     0.001264     1.380715
	    3 R(1,18)         =      1.735271     0.004028     0.000656     1.735927
	    4 R(2,3)          =      1.354690     0.032721     0.001983     1.356674
	    5 R(2,11)         =      1.399887    -0.038873    -0.008045     1.391842
	    6 R(3,4)          =      1.382685     0.022665     0.000698     1.383383
	    7 R(4,5)          =      1.071380     0.001426     0.000723     1.072104
	    8 R(4,7)          =      1.383166     0.003537     0.000897     1.384064
	    9 R(6,14)         =      1.187236     0.009298     0.001262     1.188497
	   10 R(7,8)          =      1.387430    -0.005625    -0.000281     1.387149
	   11 R(7,19)         =      1.730951    -0.000267    -0.000046     1.730904
	   12 R(8,9)          =      1.384373    -0.004928    -0.000571     1.383802
	   13 R(8,17)         =      1.730776     0.004136     0.001239     1.732015
	   14 R(9,10)         =      1.071663     0.001386     0.000484     1.072148
	   15 R(11,12)        =      1.080741     0.010189     0.001808     1.082549
	   16 R(11,13)        =      1.081771     0.011070     0.002043     1.083814
	   17 R(11,14)        =      1.515902    -0.007330     0.001223     1.517125
	   18 R(14,15)        =      1.322221    -0.015022     0.004438     1.326659
	   19 R(15,16)        =      0.953423    -0.004683     0.001598     0.955021
	   20 B(1,3,2)        =    121.346895    -0.000182    -0.287008   121.059887
	   21 B(1,3,4)        =    119.005685    -0.000085    -0.026968   118.978717
	   22 B(1,9,8)        =    120.443780     0.000006    -0.065973   120.377806
	   23 B(1,9,10)       =    119.887498    -0.000001     0.053914   119.941412
	   24 B(2,3,4)        =    119.569310     0.000263     0.244408   119.813717
	   25 B(2,11,12)      =    107.084543     0.000124     0.158919   107.243461
	   26 B(2,11,13)      =    112.207434     0.000233     0.098106   112.305540
	   27 B(2,11,14)      =    115.013379    -0.001068    -3.732707   111.280672
	   28 B(3,1,9)        =    120.340572     0.000042     0.063801   120.404373
	   29 B(3,1,18)       =    120.482823     0.000039     0.074116   120.556940
	   30 B(3,2,11)       =    118.177249     0.000639     0.610556   118.787805
	   31 B(3,4,5)        =    118.727946    -0.000052    -0.220409   118.507537
	   32 B(3,4,7)        =    120.861005     0.000008    -0.039837   120.821168
	   33 B(4,7,8)        =    119.852385     0.000004     0.018313   119.870698
	   34 B(4,7,19)       =    118.360915     0.000006     0.017198   118.378113
	   35 B(5,4,7)        =    120.409949     0.000044     0.259776   120.669726
	   36 B(6,14,11)      =    121.431016     0.001261     4.750543   126.181559
	   37 B(6,14,15)      =    123.498235     0.000211    -0.136012   123.362223
	   38 B(7,8,9)        =    119.490337     0.000024     0.046652   119.536990
	   39 B(7,8,17)       =    122.114693    -0.000001     0.019425   122.134117
	   40 B(8,7,19)       =    121.786629    -0.000011    -0.035503   121.751126
	   41 B(8,9,10)       =    119.667441    -0.000005     0.011330   119.678770
	   42 B(9,1,18)       =    119.170888    -0.000081    -0.139241   119.031647
	   43 B(9,8,17)       =    118.393948    -0.000024    -0.065709   118.328240
	   44 B(11,14,15)     =    115.054943    -0.001471    -4.942873   110.112070
	   45 B(12,11,13)     =    107.836147    -0.000182    -0.251601   107.584546
	   46 B(12,11,14)     =    106.915105     0.000469     2.084204   108.999309
	   47 B(13,11,14)     =    107.450136     0.000469     1.841880   109.292017
	   48 B(14,15,16)     =    108.013376    -0.000002     0.203061   108.216437
	   49 D(1,3,2,11)     =    -82.227885     0.000020    -0.538593   -82.766478
	   50 D(1,3,4,5)      =   -178.979493     0.000001    -0.486020  -179.465513
	   51 D(1,3,4,7)      =      0.640518     0.000009     0.346694     0.987211
	   52 D(1,9,8,7)      =      0.321386     0.000001    -0.032738     0.288648
	   53 D(1,9,8,17)     =    179.961478     0.000000     0.039390   180.000868
	   54 D(2,3,1,9)      =   -177.629938     0.000012     0.893464  -176.736474
	   55 D(2,3,1,18)     =      1.493083     0.000011     0.795890     2.288973
	   56 D(2,3,4,5)      =     -2.149319    -0.000022    -1.685797    -3.835116
	   57 D(2,3,4,7)      =    177.470691    -0.000014    -0.853083   176.617608
	   58 D(2,11,14,6)    =      1.389297     0.000012    -2.550016    -1.160719
	   59 D(2,11,14,15)   =    179.991462     0.000027     5.437139   185.428601
	   60 D(3,1,9,8)      =      0.382486     0.000003     0.150268     0.532754
	   61 D(3,1,9,10)     =    179.969380     0.000002     0.045835   180.015215
	   62 D(3,2,11,12)    =    149.657113     0.000003     0.178999   149.836112
	   63 D(3,2,11,13)    =     31.520104     0.000005     0.330542    31.850645
	   64 D(3,2,11,14)    =    -91.703562     0.000010     0.664550   -91.039012
	   65 D(3,4,7,8)      =      0.055293    -0.000004    -0.234401    -0.179107
	   66 D(3,4,7,19)     =    179.959729    -0.000003    -0.228856   179.730873
	   67 D(4,3,1,9)      =     -0.858195    -0.000008    -0.304196    -1.162391
	   68 D(4,3,1,18)     =    178.264826    -0.000009    -0.401770   177.863056
	   69 D(4,3,2,11)     =    101.018252     0.000042     0.677749   101.696001
	   70 D(4,7,8,9)      =     -0.538997    -0.000001     0.073780    -0.465217
	   71 D(4,7,8,17)     =    179.834812     0.000001    -0.000885   179.833927
	   72 D(5,4,7,8)      =    179.668921     0.000003     0.614504   180.283424
	   73 D(5,4,7,19)     =     -0.426643     0.000004     0.620048     0.193405
	   74 D(6,14,11,12)   =    120.123293    -0.000025    -3.213220   116.910073
	   75 D(6,14,11,13)   =   -124.333862     0.000032    -1.430111  -125.763973
	   76 D(6,14,15,16)   =     -0.068909     0.000003     3.142122     3.073213
	   77 D(7,8,9,10)     =   -179.266414     0.000003     0.071244  -179.195170
	   78 D(8,9,1,18)     =   -178.751974     0.000004     0.244537  -178.507438
	   79 D(9,8,7,19)     =    179.559935    -0.000002     0.067990   179.627924
	   80 D(10,9,1,18)    =      0.834919     0.000002     0.140104     0.975023
	   81 D(10,9,8,17)    =      0.373678     0.000002     0.143372     0.517050
	   82 D(11,14,15,16)  =   -178.638605    -0.000016    -4.655191  -183.293797
	   83 D(12,11,14,15)  =    -61.274542    -0.000010     4.773935   -56.500607
	   84 D(13,11,14,15)  =     54.268304     0.000048     6.557044    60.825348
	   85 D(17,8,7,19)    =     -0.066256    -0.000000    -0.006675    -0.072932
	   86 R(3,6)          =      3.349373     0.007435     0.001474     3.350848
	   87 R(4,6)          =      3.301433     0.017855    -0.013223     3.288210
	   88 R(4,14)         =      3.646508    -0.061186    -0.067576     3.578932
	   89 R(11,18)        =      3.404254    -0.002387    -0.001435     3.402819
	 ---------------------------------------------------------------------------
	Successfully symmetrized geometry.

  ==> Convergence Check <==

  Measures of convergence in internal coordinates in au.
  Criteria marked as inactive (o), active & met (*), and active & unmet ( ).
  --------------------------------------------------------------------------------------------- ~
   Step     Total Energy     Delta E     MAX Force     RMS Force      MAX Disp      RMS Disp    ~
  --------------------------------------------------------------------------------------------- ~
    Convergence Criteria             o    1.50e-05 *    1.00e-05 *    6.00e-05 *    4.00e-05 *  ~
  --------------------------------------------------------------------------------------------- ~
      1   -1908.87981370   -1.91e+03 o    1.93e-02      3.65e-03      1.28e-01      3.10e-02    ~
  ---------------------------------------------------------------------------------------------

	Writing optimization data to binary file.
	Structure for next step:
	Cartesian Geometry (in Angstrom)
	    C     0.3777470059  -0.7658233142  -1.2297541488
	    O    -1.4514015682  -1.6026493773   0.0626874569
	    C    -0.3618729797  -0.8027320796  -0.0540308018
	    C     0.0798588582  -0.0784442359   1.0386848470
	    H    -0.4919155759  -0.1192525180   1.9446731072
	    O    -3.1262874122  -0.2334023448   1.7520854812
	    C     1.2287145071   0.6896824389   0.9628918577
	    C     1.9526551962   0.7350872532  -0.2194911277
	    C     1.5224454363   0.0018844469  -1.3113895875
	    H     2.0873646690   0.0251042397  -2.2223383334
	    C    -2.6700790141  -1.1523851755  -0.4366227610
	    H    -3.2312182692  -2.0242776647  -0.7478124782
	    H    -2.5486593438  -0.5143166132  -1.3042510438
	    C    -3.4595974922  -0.4099329894   0.6250241073
	    O    -4.6617966113  -0.0936287186   0.1616737719
	    H    -5.1524702540   0.3251880660   0.8658735547
	   CL     3.3954526860   1.6796726994  -0.3806412940
	   CL    -0.1085500317  -1.7023985693  -2.6080806654
	   CL     1.7197645288   1.5760640194   2.3661835183
			--------------------------
			 OPTKING Finished Execution 
			--------------------------

    Structure for next step:
    Molecular point group: c1
    Full point group: C1

    Geometry (in Angstrom), charge = 0, multiplicity = 1:

    C            0.370181461599    -0.764782887369    -1.233188475535
    O           -1.458967112515    -1.601608950536     0.059253130160
    C           -0.369438524026    -0.801691652784    -0.057465128547
    C            0.072293313924    -0.077403809051     1.035250520233
    H           -0.499481120234    -0.118212091224     1.941238780501
    O           -3.133852956449    -0.232361918036     1.748651154443
    C            1.221148962771     0.690722865728     0.959457530949
    C            1.945089651932     0.736127679991    -0.222925454475
    C            1.514879892060     0.002924873706    -1.314823914201
    H            2.079799124750     0.026144666515    -2.225772660181
    C           -2.677644558342    -1.151344748663    -0.440057087712
    H           -3.238783813441    -2.023237237889    -0.751246804981
    H           -2.556224888083    -0.513276186371    -1.307685370572
    C           -3.467163036463    -0.408892562552     0.621589780517
    O           -4.669362155596    -0.092588291818     0.158239445168
    H           -5.160035798281     0.326228492769     0.862439227944
    CL           3.387887141714     1.680713126187    -0.384075620707
    CL          -0.116115576029    -1.701358142536    -2.611514992171
    CL           1.712198984531     1.577104446232     2.362749191578

gradient() will perform analytic gradient computation.

*** tstart() called on wr53
*** at Wed Sep 26 15:39:54 2018

   => Loading Basis Set <=

    Name: 6-31G(D)
    Role: ORBITAL
    Keyword: BASIS
    atoms 1, 3-4, 7-9, 11, 14 entry C          line   111 file /usr/local/hpc1/software_molmod/psi4/psi4conda/share/psi4/basis/6-31g_d_.gbs 
    atoms 2, 6, 15            entry O          line   145 file /usr/local/hpc1/software_molmod/psi4/psi4conda/share/psi4/basis/6-31g_d_.gbs 
    atoms 5, 10, 12-13, 16    entry H          line    44 file /usr/local/hpc1/software_molmod/psi4/psi4conda/share/psi4/basis/6-31g_d_.gbs 
    atoms 17-19               entry CL         line   340 file /usr/local/hpc1/software_molmod/psi4/psi4conda/share/psi4/basis/6-31g_d_.gbs 


         ---------------------------------------------------------
                                   SCF
            by Justin Turney, Rob Parrish, Andy Simmonett
                             and Daniel Smith
                              RHF Reference
                       16 Threads, 104904 MiB Core
         ---------------------------------------------------------

  ==> Geometry <==

    Molecular point group: c1
    Full point group: C1

    Geometry (in Angstrom), charge = 0, multiplicity = 1:

       Center              X                  Y                   Z               Mass       
    ------------   -----------------  -----------------  -----------------  -----------------
         C            0.370181461599    -0.764782887369    -1.233188475535    12.000000000000
         O           -1.458967112515    -1.601608950536     0.059253130160    15.994914619560
         C           -0.369438524026    -0.801691652784    -0.057465128547    12.000000000000
         C            0.072293313924    -0.077403809051     1.035250520233    12.000000000000
         H           -0.499481120234    -0.118212091224     1.941238780501     1.007825032070
         O           -3.133852956449    -0.232361918036     1.748651154443    15.994914619560
         C            1.221148962771     0.690722865728     0.959457530949    12.000000000000
         C            1.945089651932     0.736127679991    -0.222925454475    12.000000000000
         C            1.514879892060     0.002924873706    -1.314823914201    12.000000000000
         H            2.079799124750     0.026144666515    -2.225772660181     1.007825032070
         C           -2.677644558342    -1.151344748663    -0.440057087712    12.000000000000
         H           -3.238783813441    -2.023237237889    -0.751246804981     1.007825032070
         H           -2.556224888083    -0.513276186371    -1.307685370572     1.007825032070
         C           -3.467163036463    -0.408892562552     0.621589780517    12.000000000000
         O           -4.669362155596    -0.092588291818     0.158239445168    15.994914619560
         H           -5.160035798281     0.326228492769     0.862439227944     1.007825032070
         CL           3.387887141714     1.680713126187    -0.384075620707    34.968852682000
         CL          -0.116115576029    -1.701358142536    -2.611514992171    34.968852682000
         CL           1.712198984531     1.577104446232     2.362749191578    34.968852682000

  Running in c1 symmetry.

  Rotational constants: A =      0.02161  B =      0.01019  C =      0.00734 [cm^-1]
  Rotational constants: A =    647.77151  B =    305.46402  C =    219.92193 [MHz]
  Nuclear repulsion = 1184.617268432291212

  Charge       = 0
  Multiplicity = 1
  Electrons    = 128
  Nalpha       = 64
  Nbeta        = 64

  ==> Algorithm <==

  SCF Algorithm Type is DF.
  DIIS enabled.
  MOM disabled.
  Fractional occupation disabled.
  Guess Type is READ.
  Energy threshold   = 1.00e-08
  Density threshold  = 1.00e-08
  Integral threshold = 0.00e+00

  ==> Primary Basis <==

  Basis Set: 6-31G(D)
    Blend: 6-31G(D)
    Number of shells: 100
    Number of basis function: 232
    Number of Cartesian functions: 232
    Spherical Harmonics?: false
    Max angular momentum: 2

   => Loading Basis Set <=

    Name: (6-31G(D) AUX)
    Role: JKFIT
    Keyword: DF_BASIS_SCF
    atoms 1, 3-4, 7-9, 11, 14 entry C          line   121 file /usr/local/hpc1/software_molmod/psi4/psi4conda/share/psi4/basis/cc-pvdz-jkfit.gbs 
    atoms 2, 6, 15            entry O          line   221 file /usr/local/hpc1/software_molmod/psi4/psi4conda/share/psi4/basis/cc-pvdz-jkfit.gbs 
    atoms 5, 10, 12-13, 16    entry H          line    51 file /usr/local/hpc1/software_molmod/psi4/psi4conda/share/psi4/basis/cc-pvdz-jkfit.gbs 
    atoms 17-19               entry CL         line   667 file /usr/local/hpc1/software_molmod/psi4/psi4conda/share/psi4/basis/cc-pvdz-jkfit.gbs 

  Reading orbitals from file 180, no projection.

  ==> Pre-Iterations <==

   -------------------------------------------------------
    Irrep   Nso     Nmo     Nalpha   Nbeta   Ndocc  Nsocc
   -------------------------------------------------------
     A        232     232       0       0       0       0
   -------------------------------------------------------
    Total     232     232      64      64      64       0
   -------------------------------------------------------

  ==> Integral Setup <==

  ==> DiskDFJK: Density-Fitted J/K Matrices <==

    J tasked:                  Yes
    K tasked:                  Yes
    wK tasked:                  No
    OpenMP threads:             16
    Integrals threads:          16
    Memory (MB):             78678
    Algorithm:                Core
    Integral Cache:           NONE
    Schwarz Cutoff:          1E-12
    Fitting Condition:       1E-12

   => Auxiliary Basis Set <=

  Basis Set: (6-31G(D) AUX)
    Blend: CC-PVDZ-JKFIT
    Number of shells: 417
    Number of basis function: 1406
    Number of Cartesian functions: 1406
    Spherical Harmonics?: false
    Max angular momentum: 3

  Minimum eigenvalue in the overlap matrix is 3.6669627369E-04.
  Using Symmetric Orthogonalization.

  SCF Guess: Orbitals guess was supplied from a previous computation.

  ==> Iterations <==

                           Total Energy        Delta E     RMS |[F,P]|

   @DF-RHF iter   0: -1908.87222930191410   -1.90887e+03   1.17307e-03 
   @DF-RHF iter   1: -1908.88061990713118   -8.39061e-03   2.34789e-04 
   @DF-RHF iter   2: -1908.88144189305012   -8.21986e-04   1.43999e-04 DIIS
   @DF-RHF iter   3: -1908.88162102636261   -1.79133e-04   5.57767e-05 DIIS
   @DF-RHF iter   4: -1908.88167863499189   -5.76086e-05   1.62209e-05 DIIS
   @DF-RHF iter   5: -1908.88168280487253   -4.16988e-06   8.04520e-06 DIIS
   @DF-RHF iter   6: -1908.88168446895997   -1.66409e-06   2.85786e-06 DIIS
   @DF-RHF iter   7: -1908.88168478915077   -3.20191e-07   1.31241e-06 DIIS
   @DF-RHF iter   8: -1908.88168482465039   -3.54996e-08   3.91586e-07 DIIS
   @DF-RHF iter   9: -1908.88168482876813   -4.11774e-09   1.54637e-07 DIIS
   @DF-RHF iter  10: -1908.88168482924857   -4.80441e-10   5.26697e-08 DIIS
   @DF-RHF iter  11: -1908.88168482929291   -4.43379e-11   1.25360e-08 DIIS
   @DF-RHF iter  12: -1908.88168482929495   -2.04636e-12   4.99640e-09 DIIS

  ==> Post-Iterations <==

    Orbital Energies [Eh]
    ---------------------

    Doubly Occupied:                                                      

       1A   -104.848323     2A   -104.843607     3A   -104.841769  
       4A    -20.637797     5A    -20.613312     6A    -20.576777  
       7A    -11.405249     8A    -11.334058     9A    -11.331518  
      10A    -11.329895    11A    -11.326307    12A    -11.324048  
      13A    -11.280035    14A    -11.267959    15A    -10.581372  
      16A    -10.576828    17A    -10.575032    18A     -8.050812  
      19A     -8.047383    20A     -8.047322    21A     -8.046274  
      22A     -8.044479    23A     -8.042743    24A     -8.042742  
      25A     -8.040951    26A     -8.040919    27A     -1.500522  
      28A     -1.447832    29A     -1.389103    30A     -1.240295  
      31A     -1.184124    32A     -1.150156    33A     -1.111349  
      34A     -1.054858    35A     -1.018967    36A     -0.980745  
      37A     -0.879985    38A     -0.865017    39A     -0.812433  
      40A     -0.747288    41A     -0.740226    42A     -0.723567  
      43A     -0.703547    44A     -0.691549    45A     -0.670806  
      46A     -0.650011    47A     -0.639395    48A     -0.616099  
      49A     -0.604965    50A     -0.589525    51A     -0.572198  
      52A     -0.560890    53A     -0.542895    54A     -0.527700  
      55A     -0.501860    56A     -0.499860    57A     -0.496734  
      58A     -0.482092    59A     -0.473375    60A     -0.460759  
      61A     -0.456287    62A     -0.453244    63A     -0.361727  
      64A     -0.343491  

    Virtual:                                                              

      65A      0.100870    66A      0.108638    67A      0.152538  
      68A      0.170594    69A      0.206017    70A      0.213884  
      71A      0.236841    72A      0.243463    73A      0.293152  
      74A      0.302651    75A      0.310633    76A      0.322930  
      77A      0.332646    78A      0.392204    79A      0.407855  
      80A      0.430441    81A      0.441685    82A      0.458397  
      83A      0.479039    84A      0.487442    85A      0.527494  
      86A      0.528912    87A      0.549120    88A      0.570932  
      89A      0.586034    90A      0.601852    91A      0.607297  
      92A      0.622967    93A      0.631634    94A      0.638263  
      95A      0.655697    96A      0.663190    97A      0.669161  
      98A      0.682605    99A      0.709605   100A      0.713513  
     101A      0.738051   102A      0.766757   103A      0.777367  
     104A      0.785652   105A      0.807892   106A      0.817336  
     107A      0.824609   108A      0.845551   109A      0.856208  
     110A      0.879896   111A      0.891286   112A      0.909524  
     113A      0.936477   114A      0.938437   115A      0.958951  
     116A      0.964841   117A      0.993596   118A      1.006345  
     119A      1.026418   120A      1.048335   121A      1.053918  
     122A      1.063774   123A      1.081970   124A      1.089503  
     125A      1.109995   126A      1.120914   127A      1.125441  
     128A      1.134287   129A      1.135124   130A      1.138494  
     131A      1.145739   132A      1.158936   133A      1.183203  
     134A      1.187417   135A      1.188243   136A      1.195688  
     137A      1.214088   138A      1.223277   139A      1.237724  
     140A      1.265092   141A      1.278836   142A      1.290999  
     143A      1.302430   144A      1.326209   145A      1.341018  
     146A      1.366059   147A      1.392759   148A      1.414402  
     149A      1.422845   150A      1.440206   151A      1.453381  
     152A      1.474303   153A      1.502124   154A      1.536959  
     155A      1.559905   156A      1.592752   157A      1.613632  
     158A      1.653194   159A      1.671769   160A      1.678058  
     161A      1.690505   162A      1.738139   163A      1.765190  
     164A      1.790807   165A      1.797289   166A      1.817368  
     167A      1.831013   168A      1.890308   169A      1.892422  
     170A      1.951450   171A      2.006859   172A      2.025855  
     173A      2.045376   174A      2.058979   175A      2.069650  
     176A      2.086619   177A      2.117182   178A      2.137887  
     179A      2.188488   180A      2.222384   181A      2.228707  
     182A      2.233885   183A      2.264370   184A      2.336778  
     185A      2.353042   186A      2.363826   187A      2.383774  
     188A      2.390679   189A      2.416894   190A      2.428215  
     191A      2.454999   192A      2.480387   193A      2.518979  
     194A      2.581575   195A      2.587189   196A      2.599972  
     197A      2.612450   198A      2.746869   199A      2.761539  
     200A      2.769122   201A      2.841318   202A      2.848215  
     203A      2.889230   204A      2.970099   205A      2.984340  
     206A      3.020797   207A      3.067030   208A      3.075938  
     209A      3.084445   210A      3.117287   211A      3.177226  
     212A      3.189945   213A      3.286114   214A      3.365386  
     215A      3.412548   216A      3.493850   217A      3.501709  
     218A      3.713256   219A      4.222003   220A      4.429412  
     221A      4.450243   222A      4.473249   223A      4.519589  
     224A      4.570555   225A      4.665543   226A      4.674707  
     227A      4.728103   228A      4.751164   229A      4.803113  
     230A      4.859527   231A      4.933989   232A      5.143600  

    Final Occupation by Irrep:
              A 
    DOCC [    64 ]

  Energy converged.

  @DF-RHF Final Energy: -1908.88168482929495

   => Energetics <=

    Nuclear Repulsion Energy =           1184.6172684322912119
    One-Electron Energy =               -4987.3119338035558030
    Two-Electron Energy =                1893.8129805419698641
    Total Energy =                      -1908.8816848292949544



Properties will be evaluated at   0.000000,   0.000000,   0.000000 [a0]

Properties computed using the SCF density matrix

  Nuclear Dipole Moment: [e a0]
     X:   -13.3955      Y:    -3.5925      Z:    -0.7996

  Electronic Dipole Moment: [e a0]
     X:    12.2544      Y:     3.6663      Z:     0.1256

  Dipole Moment: [e a0]
     X:    -1.1411      Y:     0.0739      Z:    -0.6740     Total:     1.3273

  Dipole Moment: [D]
     X:    -2.9003      Y:     0.1878      Z:    -1.7132     Total:     3.3738


*** tstop() called on wr53 at Wed Sep 26 15:40:05 2018
Module time:
	user time   =      74.03 seconds =       1.23 minutes
	system time =       5.18 seconds =       0.09 minutes
	total time  =         11 seconds =       0.18 minutes
Total time:
	user time   =     230.99 seconds =       3.85 minutes
	system time =      12.09 seconds =       0.20 minutes
	total time  =         33 seconds =       0.55 minutes

*** tstart() called on wr53
*** at Wed Sep 26 15:40:05 2018


         ------------------------------------------------------------
                                   SCF GRAD                          
                          Rob Parrish, Justin Turney,                
                       Andy Simmonett, and Alex Sokolov              
         ------------------------------------------------------------

  ==> Geometry <==

    Molecular point group: c1
    Full point group: C1

    Geometry (in Angstrom), charge = 0, multiplicity = 1:

       Center              X                  Y                   Z               Mass       
    ------------   -----------------  -----------------  -----------------  -----------------
         C            0.370181461599    -0.764782887369    -1.233188475535    12.000000000000
         O           -1.458967112515    -1.601608950536     0.059253130160    15.994914619560
         C           -0.369438524026    -0.801691652784    -0.057465128547    12.000000000000
         C            0.072293313924    -0.077403809051     1.035250520233    12.000000000000
         H           -0.499481120234    -0.118212091224     1.941238780501     1.007825032070
         O           -3.133852956449    -0.232361918036     1.748651154443    15.994914619560
         C            1.221148962771     0.690722865728     0.959457530949    12.000000000000
         C            1.945089651932     0.736127679991    -0.222925454475    12.000000000000
         C            1.514879892060     0.002924873706    -1.314823914201    12.000000000000
         H            2.079799124750     0.026144666515    -2.225772660181     1.007825032070
         C           -2.677644558342    -1.151344748663    -0.440057087712    12.000000000000
         H           -3.238783813441    -2.023237237889    -0.751246804981     1.007825032070
         H           -2.556224888083    -0.513276186371    -1.307685370572     1.007825032070
         C           -3.467163036463    -0.408892562552     0.621589780517    12.000000000000
         O           -4.669362155596    -0.092588291818     0.158239445168    15.994914619560
         H           -5.160035798281     0.326228492769     0.862439227944     1.007825032070
         CL           3.387887141714     1.680713126187    -0.384075620707    34.968852682000
         CL          -0.116115576029    -1.701358142536    -2.611514992171    34.968852682000
         CL           1.712198984531     1.577104446232     2.362749191578    34.968852682000

  Nuclear repulsion = 1184.617268432291212

  ==> Basis Set <==

  Basis Set: 6-31G(D)
    Blend: 6-31G(D)
    Number of shells: 100
    Number of basis function: 232
    Number of Cartesian functions: 232
    Spherical Harmonics?: false
    Max angular momentum: 2

  ==> DFJKGrad: Density-Fitted SCF Gradients <==

    Gradient:                    1
    J tasked:                  Yes
    K tasked:                  Yes
    wK tasked:                  No
    OpenMP threads:             16
    Integrals threads:          16
    Memory (MB):             78678
    Schwarz Cutoff:          0E+00
    Fitting Condition:       1E-12

   => Auxiliary Basis Set <=

  Basis Set: (6-31G(D) AUX)
    Blend: CC-PVDZ-JKFIT
    Number of shells: 417
    Number of basis function: 1406
    Number of Cartesian functions: 1406
    Spherical Harmonics?: false
    Max angular momentum: 3


  -Total Gradient:
     Atom            X                  Y                   Z
    ------   -----------------  -----------------  -----------------
       1       -0.000027958019    -0.000328316663    -0.000369009577
       2       -0.005062115383     0.000877822220    -0.000058244986
       3       -0.001001663860     0.001566972895     0.000510031208
       4        0.002271559803    -0.000094619761    -0.000319245019
       5       -0.000231846248    -0.000059111067     0.000298769575
       6       -0.000999597003    -0.004793638357     0.010500692005
       7        0.000261684425     0.000075797165     0.000228733690
       8        0.000351830819     0.000218225829    -0.000180524153
       9       -0.000003206308    -0.000013136220     0.000387900438
      10        0.000175979714     0.000051850127    -0.000179856358
      11       -0.001711626593    -0.006296309855     0.001089063886
      12        0.001275605205    -0.001877071055    -0.002054050382
      13        0.000258628887     0.000089327954    -0.000248216060
      14        0.005398259668     0.015821670683    -0.010996154542
      15       -0.000814051899    -0.006218063421    -0.000882165124
      16       -0.000342549903     0.000864362815     0.002214728055
      17        0.000066546417     0.000051925390    -0.000040888828
      18        0.000110306645    -0.000030523489     0.000096677580
      19        0.000024213640     0.000092834769     0.000001758725


*** tstop() called on wr53 at Wed Sep 26 15:40:13 2018
Module time:
	user time   =      60.71 seconds =       1.01 minutes
	system time =       1.74 seconds =       0.03 minutes
	total time  =          8 seconds =       0.13 minutes
Total time:
	user time   =     291.71 seconds =       4.86 minutes
	system time =      13.83 seconds =       0.23 minutes
	total time  =         41 seconds =       0.68 minutes

			-----------------------------------------
			 OPTKING 2.0: for geometry optimizations 
			  - R.A. King,  Bethel University        
			-----------------------------------------

	Previous internal coordinate definitions found.
	---Fragment 1 Geometry and Gradient---
	 C           0.6995415819       -1.4452302082       -2.3303884890
	 O          -2.7570482795       -3.0266022885        0.1119721885
	 C          -0.6981376333       -1.5149776668       -0.1085933551
	 C           0.1366145646       -0.1462720007        1.9563399622
	 H          -0.9438825258       -0.2233884780        3.6684096537
	 O          -5.9221238284       -0.4391003888        3.3044717839
	 C           2.3076371071        1.3052770499        1.8131119696
	 C           3.6756867461        1.3910797140       -0.4212680570
	 C           2.8627081202        0.0055272103       -2.4846571108
	 H           3.9302507572        0.0494062595       -4.2061007618
	 C          -5.0600148965       -2.1757262595       -0.8315873786
	 H          -6.1204144110       -3.8233642815       -1.4196507196
	 H          -4.8305649725       -0.9699514228       -2.4711672184
	 C          -6.5519885970       -0.7726949610        1.1746344522
	 O          -8.8238156893       -0.1749665146        0.2990292148
	 H          -9.7510544946        0.6164825081        1.6297739471
	 CL          6.4021788670        3.1760875164       -0.7257977375
	 CL         -0.2194266385       -3.2151009433       -4.9350481271
	 CL          3.2355871658        2.9802954863        4.4649488928
	            -0.0000279580       -0.0003283167       -0.0003690096
	            -0.0050621154        0.0008778222       -0.0000582450
	            -0.0010016639        0.0015669729        0.0005100312
	             0.0022715598       -0.0000946198       -0.0003192450
	            -0.0002318462       -0.0000591111        0.0002987696
	            -0.0009995970       -0.0047936384        0.0105006920
	             0.0002616844        0.0000757972        0.0002287337
	             0.0003518308        0.0002182258       -0.0001805242
	            -0.0000032063       -0.0000131362        0.0003879004
	             0.0001759797        0.0000518501       -0.0001798564
	            -0.0017116266       -0.0062963099        0.0010890639
	             0.0012756052       -0.0018770711       -0.0020540504
	             0.0002586289        0.0000893280       -0.0002482161
	             0.0053982597        0.0158216707       -0.0109961545
	            -0.0008140519       -0.0062180634       -0.0008821651
	            -0.0003425499        0.0008643628        0.0022147281
	             0.0000665464        0.0000519254       -0.0000408888
	             0.0001103066       -0.0000305235        0.0000966776
	             0.0000242136        0.0000928348        0.0000017587

	---Fragment 1 Intrafragment Coordinates---
	 - Coordinate -           - BOHR/RAD -       - ANG/DEG -
	 R(1,3)           =         2.625785	       1.389505
	 R(1,9)           =         2.609173	       1.380715
	 R(1,18)          =         3.280426	       1.735927
	 R(2,3)           =         2.563742	       1.356674
	 R(2,11)          =         2.630200	       1.391842
	 R(3,4)           =         2.614214	       1.383383
	 R(4,5)           =         2.025982	       1.072104
	 R(4,7)           =         2.615501	       1.384064
	 R(6,14)          =         2.245935	       1.188497
	 R(7,8)           =         2.621331	       1.387149
	 R(7,19)          =         3.270935	       1.730904
	 R(8,9)           =         2.615008	       1.383802
	 R(8,17)          =         3.273034	       1.732015
	 R(9,10)          =         2.026065	       1.072148
	 R(11,12)         =         2.045722	       1.082549
	 R(11,13)         =         2.048112	       1.083814
	 R(11,14)         =         2.866951	       1.517125
	 R(14,15)         =         2.507023	       1.326659
	 R(15,16)         =         1.804728	       0.955021
	 B(1,3,2)         =         2.112894	     121.059887
	 B(1,3,4)         =         2.076570	     118.978717
	 B(1,9,8)         =         2.100989	     120.377806
	 B(1,9,10)        =         2.093373	     119.941412
	 B(2,3,4)         =         2.091144	     119.813717
	 B(2,11,12)       =         1.871752	     107.243461
	 B(2,11,13)       =         1.960101	     112.305540
	 B(2,11,14)       =         1.942214	     111.280672
	 B(3,1,9)         =         2.101453	     120.404373
	 B(3,1,18)        =         2.104116	     120.556940
	 B(3,2,11)        =         2.073238	     118.787805
	 B(3,4,5)         =         2.068347	     118.507537
	 B(3,4,7)         =         2.108727	     120.821168
	 B(4,7,8)         =         2.092138	     119.870698
	 B(4,7,19)        =         2.066088	     118.378113
	 B(5,4,7)         =         2.106084	     120.669726
	 B(6,14,11)       =         2.202284	     126.181559
	 B(6,14,15)       =         2.153077	     123.362223
	 B(7,8,9)         =         2.086314	     119.536990
	 B(7,8,17)        =         2.131642	     122.134117
	 B(8,7,19)        =         2.124958	     121.751126
	 B(8,9,10)        =         2.088789	     119.678770
	 B(9,1,18)        =         2.077494	     119.031647
	 B(9,8,17)        =         2.065217	     118.328240
	 B(11,14,15)      =         1.921818	     110.112070
	 B(12,11,13)      =         1.877705	     107.584546
	 B(12,11,14)      =         1.902397	     108.999309
	 B(13,11,14)      =         1.907506	     109.292017
	 B(14,15,16)      =         1.888733	     108.216437
	 D(1,3,2,11)      =        -1.444548	     -82.766478
	 D(1,3,4,5)       =        -3.132264	    -179.465513
	 D(1,3,4,7)       =         0.017230	       0.987211
	 D(1,9,8,7)       =         0.005038	       0.288648
	 D(1,9,8,17)      =        -3.141578	    -179.999132
	 D(2,3,1,9)       =        -3.084633	    -176.736474
	 D(2,3,1,18)      =         0.039950	       2.288973
	 D(2,3,4,5)       =        -0.066935	      -3.835116
	 D(2,3,4,7)       =         3.082559	     176.617608
	 D(2,11,14,6)     =        -0.020258	      -1.160719
	 D(2,11,14,15)    =        -3.046846	    -174.571399
	 D(3,1,9,8)       =         0.009298	       0.532754
	 D(3,1,9,10)      =        -3.141327	    -179.984785
	 D(3,2,11,12)     =         2.615133	     149.836112
	 D(3,2,11,13)     =         0.555899	      31.850645
	 D(3,2,11,14)     =        -1.588931	     -91.039012
	 D(3,4,7,8)       =        -0.003126	      -0.179107
	 D(3,4,7,19)      =         3.136895	     179.730873
	 D(4,3,1,9)       =        -0.020288	      -1.162391
	 D(4,3,1,18)      =         3.104296	     177.863056
	 D(4,3,2,11)      =         1.774930	     101.696001
	 D(4,7,8,9)       =        -0.008120	      -0.465217
	 D(4,7,8,17)      =         3.138694	     179.833927
	 D(5,4,7,8)       =        -3.136646	    -179.716576
	 D(5,4,7,19)      =         0.003376	       0.193405
	 D(6,14,11,12)    =         2.040466	     116.910073
	 D(6,14,11,13)    =        -2.194995	    -125.763973
	 D(6,14,15,16)    =         0.053638	       3.073213
	 D(7,8,9,10)      =        -3.127546	    -179.195170
	 D(8,9,1,18)      =        -3.115543	    -178.507438
	 D(9,8,7,19)      =         3.135099	     179.627924
	 D(10,9,1,18)     =         0.017017	       0.975023
	 D(10,9,8,17)     =         0.009024	       0.517050
	 D(11,14,15,16)   =         3.084105	     176.706203
	 D(12,11,14,15)   =        -0.986122	     -56.500607
	 D(13,11,14,15)   =         1.061603	      60.825348
	 D(17,8,7,19)     =        -0.001273	      -0.072932
	 R(3,6)           =         6.332184	       3.350848
	 R(4,6)           =         6.213817	       3.288210
	 R(4,14)          =         6.763201	       3.578932
	 R(11,18)         =         6.430395	       3.402819

	Current energy   :     -1908.8816848293

	Energy change for the previous step:
		Projected    :        -0.0085852626
		Actual       :        -0.0018711261
	Energy ratio indicates iffy step: Trust radius decreased to 1.250e-01.


	Performing BFGS update.
	Previous computed or guess Hessian on step 1.
	Steps to be used in Hessian update: 1
	Taking RFO optimization step.
	Going to follow RFO solution 1.
	Using RFO vector 1.

	Determining step-restricting scale parameter for RS-RFO.
	Maximum step size allowed    0.12500

	 Iter      |step|        alpha        rfo_root  
	------------------------------------------------
	    0     0.53183       1.00000           1
	    1     0.34220       4.09356           1
	    2     0.22901      11.08824           1
	    3     0.16610      22.78307           1
	    4     0.13588      35.04940           1
	    5     0.12616      40.99486           1
	    6     0.12502      41.78386           1
	    7     0.12500      41.79484           1
	------------------------------------------------
	Norm of target step-size    0.12500
	Projected energy change by RFO approximation:        -0.0009595016

	Back-transformation to cartesian coordinates...
	Could not converge backtransformation.
	Using first guess instead.

	--- Internal Coordinate Step in ANG or DEG, aJ/ANG or AJ/DEG ---
	 ---------------------------------------------------------------------------
	   Coordinate                Previous        Force       Change         New 
	   ----------                --------       ------       ------       ------
	    1 R(1,3)          =      1.389505    -0.006447    -0.000675     1.388830
	    2 R(1,9)          =      1.380715    -0.003770    -0.000176     1.380539
	    3 R(1,18)         =      1.735927     0.000039     0.000146     1.736073
	    4 R(2,3)          =      1.356674    -0.019502    -0.001236     1.355437
	    5 R(2,11)         =      1.391842     0.028442     0.001996     1.393838
	    6 R(3,4)          =      1.383383    -0.007834    -0.000519     1.382864
	    7 R(4,5)          =      1.072104    -0.003117    -0.000334     1.071770
	    8 R(4,7)          =      1.384064    -0.004312    -0.000324     1.383739
	    9 R(6,14)         =      1.188497    -0.074505    -0.002878     1.185620
	   10 R(7,8)          =      1.387149    -0.000224    -0.000118     1.387030
	   11 R(7,19)         =      1.730904    -0.000460    -0.000072     1.730832
	   12 R(8,9)          =      1.383802     0.000665    -0.000042     1.383761
	   13 R(8,17)         =      1.732015    -0.000721     0.000070     1.732085
	   14 R(9,10)         =      1.072148    -0.002032    -0.000190     1.071958
	   15 R(11,12)        =      1.082549    -0.011872    -0.001264     1.081285
	   16 R(11,13)        =      1.083814    -0.002309     0.000026     1.083840
	   17 R(11,14)        =      1.517125    -0.013620    -0.002032     1.515094
	   18 R(14,15)        =      1.326659     0.005716     0.001345     1.328004
	   19 R(15,16)        =      0.955021    -0.018027    -0.001106     0.953915
	   20 B(1,3,2)        =    121.059887     0.000065     0.040335   121.100222
	   21 B(1,3,4)        =    118.978717     0.000080     0.115973   119.094690
	   22 B(1,9,8)        =    120.377806    -0.000032    -0.067728   120.310079
	   23 B(1,9,10)       =    119.941412     0.000010     0.019488   119.960900
	   24 B(2,3,4)        =    119.813717    -0.000141    -0.137451   119.676266
	   25 B(2,11,12)      =    107.243461     0.000051     0.221825   107.465286
	   26 B(2,11,13)      =    112.305540    -0.000047     0.030534   112.336074
	   27 B(2,11,14)      =    111.280672     0.000223     0.139128   111.419800
	   28 B(3,1,9)        =    120.404373    -0.000021    -0.019919   120.384454
	   29 B(3,1,18)       =    120.556940    -0.000017    -0.015643   120.541297
	   30 B(3,2,11)       =    118.787805    -0.000137    -0.115629   118.672176
	   31 B(3,4,5)        =    118.507537     0.000026     0.025139   118.532676
	   32 B(3,4,7)        =    120.821168    -0.000044    -0.087157   120.734011
	   33 B(4,7,8)        =    119.870698    -0.000003     0.004355   119.875052
	   34 B(4,7,19)       =    118.378113    -0.000005    -0.011772   118.366341
	   35 B(5,4,7)        =    120.669726     0.000017     0.061870   120.731596
	   36 B(6,14,11)      =    126.181559    -0.000050     0.764085   126.945644
	   37 B(6,14,15)      =    123.362223     0.000043     0.090718   123.452941
	   38 B(7,8,9)        =    119.536990     0.000020     0.056901   119.593891
	   39 B(7,8,17)       =    122.134117    -0.000014    -0.029659   122.104458
	   40 B(8,7,19)       =    121.751126     0.000008     0.007431   121.758557
	   41 B(8,9,10)       =    119.678770     0.000022     0.048302   119.727072
	   42 B(9,1,18)       =    119.031647     0.000038     0.036574   119.068221
	   43 B(9,8,17)       =    118.328240    -0.000006    -0.027018   118.301221
	   44 B(11,14,15)     =    110.112070     0.000061    -0.532093   109.579976
	   45 B(12,11,13)     =    107.584546     0.000067     0.060612   107.645158
	   46 B(12,11,14)     =    108.999309    -0.000258    -0.692462   108.306847
	   47 B(13,11,14)     =    109.292017    -0.000048     0.204883   109.496900
	   48 B(14,15,16)     =    108.216437     0.000136     0.453866   108.670303
	   49 D(1,3,2,11)     =    -82.766478    -0.000003    -0.056324   -82.822802
	   50 D(1,3,4,5)      =   -179.465513    -0.000004    -0.170961  -179.636473
	   51 D(1,3,4,7)      =      0.987211    -0.000005    -0.150522     0.836689
	   52 D(1,9,8,7)      =      0.288648    -0.000002    -0.069534     0.219114
	   53 D(1,9,8,17)     =   -179.999132    -0.000001    -0.015285  -180.014417
	   54 D(2,3,1,9)      =   -176.736474    -0.000005    -0.153514  -176.889989
	   55 D(2,3,1,18)     =      2.288973    -0.000003    -0.080432     2.208540
	   56 D(2,3,4,5)      =     -3.835116     0.000007     0.118826    -3.716290
	   57 D(2,3,4,7)      =    176.617608     0.000007     0.139265   176.756872
	   58 D(2,11,14,6)    =     -1.160719     0.000061     2.599459     1.438740
	   59 D(2,11,14,15)   =   -174.571399    -0.000056    -2.340028  -176.911427
	   60 D(3,1,9,8)      =      0.532754    -0.000001    -0.024565     0.508189
	   61 D(3,1,9,10)     =   -179.984785    -0.000001    -0.016349  -180.001135
	   62 D(3,2,11,12)    =    149.836112     0.000026     0.361842   150.197953
	   63 D(3,2,11,13)    =     31.850645     0.000007     0.129900    31.980545
	   64 D(3,2,11,14)    =    -91.039012    -0.000009    -0.263837   -91.302849
	   65 D(3,4,7,8)      =     -0.179107     0.000002     0.059115    -0.119993
	   66 D(3,4,7,19)     =    179.730873     0.000002     0.069111   179.799984
	   67 D(4,3,1,9)      =     -1.162391     0.000005     0.132583    -1.029808
	   68 D(4,3,1,18)     =    177.863056     0.000007     0.205665   178.068721
	   69 D(4,3,2,11)     =    101.696001    -0.000015    -0.355210   101.340791
	   70 D(4,7,8,9)      =     -0.465217     0.000001     0.052395    -0.412822
	   71 D(4,7,8,17)     =    179.833927    -0.000000    -0.004014   179.829913
	   72 D(5,4,7,8)      =   -179.716576     0.000002     0.080190  -179.636385
	   73 D(5,4,7,19)     =      0.193405     0.000002     0.090187     0.283591
	   74 D(6,14,11,12)   =    116.910073     0.000069     2.522329   119.432401
	   75 D(6,14,11,13)   =   -125.763973     0.000047     2.315506  -123.448466
	   76 D(6,14,15,16)   =      3.073213    -0.000056    -2.481893     0.591320
	   77 D(7,8,9,10)     =   -179.195170    -0.000002    -0.077583  -179.272753
	   78 D(8,9,1,18)     =   -178.507438    -0.000003    -0.096083  -178.603520
	   79 D(9,8,7,19)     =    179.627924     0.000001     0.042068   179.669992
	   80 D(10,9,1,18)    =      0.975023    -0.000003    -0.087868     0.887156
	   81 D(10,9,8,17)    =      0.517050    -0.000001    -0.023334     0.493716
	   82 D(11,14,15,16)  =    176.706203     0.000055     2.304774   179.010977
	   83 D(12,11,14,15)  =    -56.500607    -0.000048    -2.417158   -58.917765
	   84 D(13,11,14,15)  =     60.825348    -0.000070    -2.623981    58.201367
	   85 D(17,8,7,19)    =     -0.072932    -0.000000    -0.014341    -0.087273
	   86 R(3,6)          =      3.350848     0.001744     0.003059     3.353907
	   87 R(4,6)          =      3.288210    -0.001451    -0.006903     3.281307
	   88 R(4,14)         =      3.578932    -0.002092    -0.002521     3.576410
	   89 R(11,18)        =      3.402819     0.001860     0.001006     3.403824
	 ---------------------------------------------------------------------------
	Successfully symmetrized geometry.

  ==> Convergence Check <==

  Measures of convergence in internal coordinates in au.
  Criteria marked as inactive (o), active & met (*), and active & unmet ( ).
  ---------------------------------------------------------------------------------------------
   Step     Total Energy     Delta E     MAX Force     RMS Force      MAX Disp      RMS Disp   
  ---------------------------------------------------------------------------------------------
    Convergence Criteria             o    1.50e-05 *    1.00e-05 *    6.00e-05 *    4.00e-05 *
  ---------------------------------------------------------------------------------------------
      2   -1908.88168483   -1.87e-03 o    9.04e-03      1.65e-03      4.58e-02      1.33e-02    ~
  ---------------------------------------------------------------------------------------------

	Writing optimization data to binary file.
	Structure for next step:
	Cartesian Geometry (in Angstrom)
	    C     0.3685973049  -0.7656828737  -1.2347673157
	    O    -1.4515983993  -1.6143771507   0.0603765658
	    C    -0.3661646431  -0.8111061046  -0.0570953904
	    C     0.0715027072  -0.0872427692   1.0368797811
	    H    -0.4991672560  -0.1334734569   1.9429092550
	    O    -3.1282323322  -0.2209042061   1.7515875171
	    C     1.2154701467   0.6875067407   0.9604816599
	    C     1.9363560478   0.7403069053  -0.2233208127
	    C     1.5083466328   0.0089485424  -1.3172662087
	    H     2.0703357971   0.0389905311  -2.2296033365
	    C    -2.6746178965  -1.1622426723  -0.4321492471
	    H    -3.2408850530  -2.0300532957  -0.7410568981
	    H    -2.5582141106  -0.5206689307  -1.2979106921
	    C    -3.4653734598  -0.4331165472   0.6348977965
	    O    -4.6483163283  -0.0775712944   0.1472219099
	    H    -5.1406285498   0.3661075618   0.8333205705
	   CL     3.3732171781   1.6940420853  -0.3843683160
	   CL    -0.1187830395  -1.6988249656  -2.6152224511
	   CL     1.7045642472   1.5725695729   2.3651988651
			--------------------------
			 OPTKING Finished Execution 
			--------------------------

    Structure for next step:
    Molecular point group: c1
    Full point group: C1

    Geometry (in Angstrom), charge = 0, multiplicity = 1:

    C            0.370587640112    -0.765916442071    -1.235007382017
    O           -1.449608064034    -1.614610719049     0.060136499469
    C           -0.364174307797    -0.811339672970    -0.057335456716
    C            0.073493042495    -0.087476337568     1.036639714749
    H           -0.497176920784    -0.133707025278     1.942669188706
    O           -3.126241996939    -0.221137774466     1.751347450714
    C            1.217460481966     0.687273172342     0.960241593512
    C            1.938346383066     0.740073336993    -0.223560879028
    C            1.510336968037     0.008714974062    -1.317506275011
    H            2.072326132376     0.038756962763    -2.229843402820
    C           -2.672627561216    -1.162476240682    -0.432389313450
    H           -3.238894717729    -2.030286864094    -0.741296964473
    H           -2.556223775368    -0.520902499092    -1.298150758463
[...]
	 B(2,11,14)       =         1.959481	     112.269969
	 B(3,1,9)         =         2.100809	     120.367465
	 B(3,1,18)        =         2.102883	     120.486330
	 B(3,2,11)        =         2.064238	     118.272110
	 B(3,4,5)         =         2.071342	     118.679157
	 B(3,4,7)         =         2.105701	     120.647757
	 B(4,7,8)         =         2.092628	     119.898747
	 B(4,7,19)        =         2.065712	     118.356585
	 B(5,4,7)         =         2.106133	     120.672527
	 B(6,14,11)       =         2.207042	     126.454169
	 B(6,14,15)       =         2.157516	     123.616546
	 B(7,8,9)         =         2.087758	     119.619696
	 B(7,8,17)        =         2.130850	     122.088695
	 B(8,7,19)        =         2.124845	     121.744658
	 B(8,9,10)        =         2.089943	     119.744909
	 B(9,1,18)        =         2.079443	     119.143334
	 B(9,8,17)        =         2.064573	     118.291319
	 B(11,14,15)      =         1.918628	     109.929285
	 B(12,11,13)      =         1.881209	     107.785336
	 B(12,11,14)      =         1.890338	     108.308417
	 B(13,11,14)      =         1.896344	     108.652532
	 B(14,15,16)      =         1.898918	     108.799980
	 D(1,3,2,11)      =        -1.491531	     -85.458433
	 D(1,3,4,5)       =        -3.139117	    -179.858165
	 D(1,3,4,7)       =         0.007190	       0.411984
	 D(1,9,8,7)       =         0.002591	       0.148445
	 D(1,9,8,17)      =         3.140833	     179.956469
	 D(2,3,1,9)       =        -3.093824	    -177.263053
	 D(2,3,1,18)      =         0.036919	       2.115288
	 D(2,3,4,5)       =        -0.054647	      -3.131036
	 D(2,3,4,7)       =         3.091661	     177.139112
	 D(2,11,14,6)     =         0.071206	       4.079816
	 D(2,11,14,15)    =        -3.070456	    -175.924162
	 D(3,1,9,8)       =         0.005203	       0.298095
	 D(3,1,9,10)      =         3.140213	     179.920974
	 D(3,2,11,12)     =         2.643251	     151.447143
	 D(3,2,11,13)     =         0.578545	      33.148172
	 D(3,2,11,14)     =        -1.563861	     -89.602658
	 D(3,4,7,8)       =         0.000514	       0.029445
	 D(3,4,7,19)      =         3.141487	     179.993932
	 D(4,3,1,9)       =        -0.010045	      -0.575560
	 D(4,3,1,18)      =         3.120697	     178.802781
	 D(4,3,2,11)      =         1.708215	      97.873492
	 D(4,7,8,9)       =        -0.005437	      -0.311517
	 D(4,7,8,17)      =         3.139638	     179.888009
	 D(5,4,7,8)       =        -3.136269	    -179.694997
	 D(5,4,7,19)      =         0.004703	       0.269490
	 D(6,14,11,12)    =         2.137927	     122.494211
	 D(6,14,11,13)    =        -2.106278	    -120.680859
	 D(6,14,15,16)    =        -0.000327	      -0.018733
	 D(7,8,9,10)      =        -3.132435	    -179.475308
	 D(8,9,1,18)      =        -3.125685	    -179.088542
	 D(9,8,7,19)      =         3.136797	     179.725232
	 D(10,9,1,18)     =         0.009326	       0.534338
	 D(10,9,8,17)     =         0.005807	       0.332716
	 D(11,14,15,16)   =         3.141333	     179.985110
	 D(12,11,14,15)   =        -1.003735	     -57.509767
	 D(13,11,14,15)   =         1.035245	      59.315163
	 D(17,8,7,19)     =        -0.001313	      -0.075241
	 R(3,6)           =         6.279953	       3.323208
	 R(4,6)           =         6.056165	       3.204785
	 R(4,14)          =         6.673260	       3.531337
	 R(11,18)         =         6.501981	       3.440700

	Current energy   :     -1908.8826863155

	Energy change for the previous step:
		Projected    :         0.0000000003
		Actual       :         0.0000000018

	Performing BFGS update.
	Previous computed or guess Hessian on step 1.
	Denominators (dg)(dq) or (dq)(dq) are very small.
	 Skipping Hessian update for step 18.
	Denominators (dg)(dq) or (dq)(dq) are very small.
	 Skipping Hessian update for step 17.
	Denominators (dg)(dq) or (dq)(dq) are very small.
	 Skipping Hessian update for step 16.
	Denominators (dg)(dq) or (dq)(dq) are very small.
	 Skipping Hessian update for step 15.
	Denominators (dg)(dq) or (dq)(dq) are very small.
	 Skipping Hessian update for step 14.
	Denominators (dg)(dq) or (dq)(dq) are very small.
	 Skipping Hessian update for step 13.
	Denominators (dg)(dq) or (dq)(dq) are very small.
	 Skipping Hessian update for step 12.
	Denominators (dg)(dq) or (dq)(dq) are very small.
	 Skipping Hessian update for step 11.
	Denominators (dg)(dq) or (dq)(dq) are very small.
	 Skipping Hessian update for step 10.
	Denominators (dg)(dq) or (dq)(dq) are very small.
	 Skipping Hessian update for step 9.
	Steps to be used in Hessian update: 8 7
	Taking RFO optimization step.
	Going to follow RFO solution 1.
	Using RFO vector 1.
	Norm of target step-size    0.00013
	Projected energy change by RFO approximation:         0.0000000000

	Back-transformation to cartesian coordinates...
	Successfully converged to displaced geometry.

	--- Internal Coordinate Step in ANG or DEG, aJ/ANG or AJ/DEG ---
	 ---------------------------------------------------------------------------
	   Coordinate                Previous        Force       Change         New 
	   ----------                --------       ------       ------       ------
	    1 R(1,3)          =      1.388551    -0.000002    -0.000000     1.388551
	    2 R(1,9)          =      1.380422    -0.000003    -0.000000     1.380422
	    3 R(1,18)         =      1.735800     0.000001     0.000000     1.735800
	    4 R(2,3)          =      1.355846     0.000001     0.000000     1.355846
	    5 R(2,11)         =      1.395587     0.000000    -0.000000     1.395586
	    6 R(3,4)          =      1.382756    -0.000003    -0.000000     1.382756
	    7 R(4,5)          =      1.071078    -0.000002    -0.000000     1.071078
	    8 R(4,7)          =      1.383779    -0.000005    -0.000001     1.383778
	    9 R(6,14)         =      1.183887     0.000001     0.000000     1.183887
	   10 R(7,8)          =      1.387083    -0.000001    -0.000000     1.387083
	   11 R(7,19)         =      1.731036    -0.000000    -0.000000     1.731036
	   12 R(8,9)          =      1.383786    -0.000002    -0.000000     1.383786
	   13 R(8,17)         =      1.732134     0.000000     0.000000     1.732134
	   14 R(9,10)         =      1.071805    -0.000002    -0.000000     1.071804
	   15 R(11,12)        =      1.080980    -0.000000    -0.000000     1.080980
	   16 R(11,13)        =      1.083374     0.000001     0.000000     1.083374
	   17 R(11,14)        =      1.514099    -0.000001    -0.000000     1.514099
	   18 R(14,15)        =      1.327411    -0.000000     0.000000     1.327411
	   19 R(15,16)        =      0.952791    -0.000001    -0.000000     0.952791
	   20 B(1,3,2)        =    120.953572     0.000000     0.000005   120.953578
	   21 B(1,3,4)        =    119.186067    -0.000000    -0.000007   119.186061
	   22 B(1,9,8)        =    120.277707    -0.000000    -0.000026   120.277680
	   23 B(1,9,10)       =    119.976315     0.000000     0.000014   119.976329
	   24 B(2,3,4)        =    119.777751     0.000000     0.000020   119.777770
	   25 B(2,11,12)      =    107.398354    -0.000000    -0.000128   107.398226
	   26 B(2,11,13)      =    112.253356     0.000000     0.000108   112.253464
	   27 B(2,11,14)      =    112.269969    -0.000000    -0.000001   112.269968
	   28 B(3,1,9)        =    120.367465     0.000000     0.000023   120.367488
	   29 B(3,1,18)       =    120.486330    -0.000000    -0.000031   120.486299
	   30 B(3,2,11)       =    118.272110     0.000000     0.000035   118.272146
	   31 B(3,4,5)        =    118.679157     0.000000     0.000033   118.679190
	   32 B(3,4,7)        =    120.647757     0.000000    -0.000001   120.647756
	   33 B(4,7,8)        =    119.898747     0.000000     0.000005   119.898751
	   34 B(4,7,19)       =    118.356585     0.000000     0.000008   118.356593
	   35 B(5,4,7)        =    120.672527    -0.000000    -0.000030   120.672497
	   36 B(6,14,11)      =    126.454169     0.000000    -0.000005   126.454164
	   37 B(6,14,15)      =    123.616546     0.000000     0.000073   123.616619
	   38 B(7,8,9)        =    119.619696     0.000000     0.000013   119.619709
	   39 B(7,8,17)       =    122.088695     0.000000     0.000003   122.088698
	   40 B(8,7,19)       =    121.744658    -0.000000    -0.000010   121.744648
	   41 B(8,9,10)       =    119.744909     0.000000     0.000010   119.744919
	   42 B(9,1,18)       =    119.143334    -0.000000    -0.000005   119.143329
	   43 B(9,8,17)       =    118.291319    -0.000000    -0.000023   118.291296
	   44 B(11,14,15)     =    109.929285    -0.000000    -0.000068   109.929217
	   45 B(12,11,13)     =    107.785336    -0.000000    -0.000029   107.785307
	   46 B(12,11,14)     =    108.308417     0.000000    -0.000010   108.308407
	   47 B(13,11,14)     =    108.652532    -0.000000     0.000053   108.652585
	   48 B(14,15,16)     =    108.799980    -0.000000    -0.000070   108.799910
	   49 D(1,3,2,11)     =    -85.458433     0.000000     0.000605   -85.457829
	   50 D(1,3,4,5)      =   -179.858165     0.000000     0.000765  -179.857400
	   51 D(1,3,4,7)      =      0.411984     0.000000     0.000501     0.412484
	   52 D(1,9,8,7)      =      0.148445     0.000000     0.000170     0.148615
	   53 D(1,9,8,17)     =    179.956469    -0.000000    -0.001814   179.954654
	   54 D(2,3,1,9)      =   -177.263053     0.000000     0.000382  -177.262671
	   55 D(2,3,1,18)     =      2.115288    -0.000000    -0.000946     2.114342
	   56 D(2,3,4,5)      =     -3.131036     0.000000     0.001129    -3.129907
	   57 D(2,3,4,7)      =    177.139112     0.000000     0.000864   177.139976
	   58 D(2,11,14,6)    =      4.079816     0.000000     0.000422     4.080237
	   59 D(2,11,14,15)   =   -175.924162     0.000000     0.000375  -175.923787
	   60 D(3,1,9,8)      =      0.298095    -0.000000    -0.001088     0.297006
	   61 D(3,1,9,10)     =    179.920974    -0.000000    -0.001486   179.919488
	   62 D(3,2,11,12)    =    151.447143     0.000000     0.000221   151.447364
	   63 D(3,2,11,13)    =     33.148172     0.000000     0.000276    33.148448
	   64 D(3,2,11,14)    =    -89.602658    -0.000000     0.000126   -89.602531
	   65 D(3,4,7,8)      =      0.029445    -0.000000    -0.001414     0.028031
	   66 D(3,4,7,19)     =    179.993932     0.000000     0.002527   179.996459
	   67 D(4,3,1,9)      =     -0.575560     0.000000     0.000751    -0.574809
	   68 D(4,3,1,18)     =    178.802781    -0.000000    -0.000577   178.802204
	   69 D(4,3,2,11)     =     97.873492     0.000000     0.000235    97.873726
	   70 D(4,7,8,9)      =     -0.311517     0.000000     0.001072    -0.310445
	   71 D(4,7,8,17)     =    179.888009     0.000000     0.003135   179.891144
	   72 D(5,4,7,8)      =   -179.694997    -0.000000    -0.001684  -179.696681
	   73 D(5,4,7,19)     =      0.269490     0.000000     0.002257     0.271748
	   74 D(6,14,11,12)   =    122.494211    -0.000000     0.000257   122.494468
	   75 D(6,14,11,13)   =   -120.680859    -0.000000     0.000246  -120.680614
	   76 D(6,14,15,16)   =     -0.018733     0.000000    -0.000025    -0.018757
	   77 D(7,8,9,10)     =   -179.475308     0.000000     0.000567  -179.474741
	   78 D(8,9,1,18)     =   -179.088542     0.000000     0.000222  -179.088320
	   79 D(9,8,7,19)     =    179.725232    -0.000000    -0.003006   179.722225
	   80 D(10,9,1,18)    =      0.534338    -0.000000    -0.000176     0.534162
	   81 D(10,9,8,17)    =      0.332716    -0.000000    -0.001418     0.331298
	   82 D(11,14,15,16)  =    179.985110     0.000000     0.000020   179.985130
	   83 D(12,11,14,15)  =    -57.509767    -0.000000     0.000210   -57.509557
	   84 D(13,11,14,15)  =     59.315163    -0.000000     0.000199    59.315362
	   85 D(17,8,7,19)    =     -0.075241    -0.000000    -0.000943    -0.076185
	   86 R(3,6)          =      3.323208    -0.000000    -0.000004     3.323204
	   87 R(4,6)          =      3.204785    -0.000000    -0.000003     3.204782
	   88 R(4,14)         =      3.531337     0.000000     0.000002     3.531339
	   89 R(11,18)        =      3.440700    -0.000001    -0.000002     3.440698
	 ---------------------------------------------------------------------------
	Successfully symmetrized geometry.

  ==> Convergence Check <==

  Measures of convergence in internal coordinates in au.
  Criteria marked as inactive (o), active & met (*), and active & unmet ( ).
  ---------------------------------------------------------------------------------------------
   Step     Total Energy     Delta E     MAX Force     RMS Force      MAX Disp      RMS Disp   
  ---------------------------------------------------------------------------------------------
    Convergence Criteria             o    1.50e-05 *    1.00e-05 *    6.00e-05 *    4.00e-05 *
  ---------------------------------------------------------------------------------------------
     19   -1908.88268632    1.82e-09 o    1.13e-06 *    2.95e-07 *    5.47e-05 *    1.34e-05 *  ~
  ---------------------------------------------------------------------------------------------


  **** Optimization is complete! (in 19 steps) ****

  ==> Optimization Summary <==

  Measures of convergence in internal coordinates in au.
  --------------------------------------------------------------------------------------------------------------- ~
   Step         Total Energy             Delta E       MAX Force       RMS Force        MAX Disp        RMS Disp  ~
  --------------------------------------------------------------------------------------------------------------- ~
      1   -1908.879813703226  -1908.879813703226      0.01932754      0.00364941      0.12770025      0.03096393  ~
      2   -1908.881684829295     -0.001871126069      0.00904326      0.00164955      0.04579710      0.01327869  ~
      3   -1908.882475308976     -0.000790479681      0.00435212      0.00084792      0.04826033      0.01190495  ~
      4   -1908.882634116670     -0.000158807694      0.00146276      0.00024877      0.02931131      0.00620479  ~
      5   -1908.882660835290     -0.000026718620      0.00064142      0.00015880      0.03305630      0.00604845  ~
      6   -1908.882679363153     -0.000018527863      0.00024454      0.00005994      0.03181552      0.00535432  ~
      7   -1908.882685141066     -0.000005777913      0.00008520      0.00002525      0.00687569      0.00187381  ~
      8   -1908.882686013304     -0.000000872238      0.00008304      0.00001696      0.00555845      0.00159340  ~
      9   -1908.882686283037     -0.000000269732      0.00002798      0.00000588      0.00066524      0.00017542  ~
     10   -1908.882686303692     -0.000000020655      0.00000740      0.00000245      0.00049229      0.00009538  ~
     11   -1908.882686311990     -0.000000008298      0.00000504      0.00000142      0.00022029      0.00006871  ~
     12   -1908.882686313199     -0.000000001209      0.00000417      0.00000117      0.00016665      0.00004019  ~
     13   -1908.882686314688     -0.000000001490      0.00000220      0.00000070      0.00010297      0.00003299  ~
     14   -1908.882686317987     -0.000000003299      0.00000266      0.00000069      0.00009009      0.00002231  ~
     15   -1908.882686315183      0.000000002804      0.00000166      0.00000047      0.00007965      0.00002079  ~
     16   -1908.882686314086      0.000000001098      0.00000149      0.00000047      0.00007291      0.00001749  ~
     17   -1908.882686318183     -0.000000004097      0.00000139      0.00000035      0.00006703      0.00001648  ~
     18   -1908.882686317349      0.000000000834      0.00000126      0.00000033      0.00006114      0.00001481  ~
     19   -1908.882686315533      0.000000001816      0.00000113      0.00000029      0.00005472      0.00001343  ~
  --------------------------------------------------------------------------------------------------------------- ~

	Writing optimization data to binary file.
	Final energy is  -1908.8826863155327
	Final (previous) structure:
	Cartesian Geometry (in Angstrom)
	    C     0.3966503844  -0.7955071993  -1.2318708003
	    O    -1.4384637909  -1.6434284479   0.0395243182
	    C    -0.3564032611  -0.8332711628  -0.0658699204
	    C     0.0480868361  -0.0826256455   1.0226769478
	    H    -0.5375404337  -0.1195815085   1.9187144038
	    O    -3.0752177431  -0.1882309713   1.7329306949
	    C     1.1837741356   0.7049577087   0.9536094395
	    C     1.9267793266   0.7457119958  -0.2169804600
	    C     1.5284088009  -0.0086667373  -1.3065114028
	    H     2.1057480769   0.0147867998  -2.2092266661
	    C    -2.6649043116  -1.1729687149  -0.4318280440
	    H    -3.2434600686  -2.0321495020  -0.7410181470
	    H    -2.5521768651  -0.5232122579  -1.2913681027
	    C    -3.4443233412  -0.4336848926   0.6351591139
	    O    -4.6354751888  -0.0842410493   0.1649819228
	    H    -5.1115220497   0.3787473096   0.8482327362
	   CL     3.3554054753   1.7136268437  -0.3668368308
	   CL    -0.0627852752  -1.7482629574  -2.6081622142
	   CL     1.6356280409   1.6205211855   2.3514855436
	Saving final (previous) structure.
	Removing binary optimization data file.
			--------------------------
			 OPTKING Finished Execution 
			--------------------------

    Final optimized geometry and variables:
    Molecular point group: c1
    Full point group: C1

    Geometry (in Angstrom), charge = 0, multiplicity = 1:

    C            0.396650384427    -0.795507199289    -1.231870800271
    O           -1.438463790903    -1.643428447857     0.039524318233
    C           -0.356403261108    -0.833271162769    -0.065869920354
    C            0.048086836055    -0.082625645534     1.022676947815
    H           -0.537540433747    -0.119581508509     1.918714403778
    O           -3.075217743102    -0.188230971266     1.732930694947
    C            1.183774135614     0.704957708685     0.953609439542
    C            1.926779326584     0.745711995791    -0.216980459991
    C            1.528408800900    -0.008666737268    -1.306511402800
    H            2.105748076937     0.014786799795    -2.209226666129
    C           -2.664904311559    -1.172968714947    -0.431828043952
    H           -3.243460068553    -2.032149502007    -0.741018147019
    H           -2.552176865113    -0.523212257935    -1.291368102733
    C           -3.444323341238    -0.433684892593     0.635159113887
    O           -4.635475188827    -0.084241049281     0.164981922755
    H           -5.111522049714     0.378747309583     0.848232736218
    CL           3.355405475317     1.713626843670    -0.366836830771
    CL          -0.062785275168    -1.748262957397    -2.608162214193
    CL           1.635628040869     1.620521185508     2.351485543593

	Removing binary optimization data file.
	Cleaning optimization helper files.


  Variable Map:
  ----------------------------------------------------------------------------
  "CURRENT DIPOLE X"         =>      -3.002591653802
  "CURRENT DIPOLE Y"         =>       0.136127989747
  "CURRENT DIPOLE Z"         =>      -1.624565951571
  "CURRENT ENERGY"           =>   -1908.882686315533
  "CURRENT REFERENCE ENERGY" =>   -1908.882686315533
  "HF TOTAL ENERGY"          =>   -1908.882686315533
  "NUCLEAR REPULSION ENERGY" =>    1186.388415804889
  "ONE-ELECTRON ENERGY"      =>   -4990.876466051752
  "OPTIMIZATION ITERATIONS"  =>      19.000000000000
  "PCM POLARIZATION ENERGY"  =>       0.000000000000
  "SCF DIPOLE X"             =>      -3.002591653802
  "SCF DIPOLE Y"             =>       0.136127989747
  "SCF DIPOLE Z"             =>      -1.624565951571
  "SCF ITERATION ENERGY"     =>   -1908.882686315533
  "SCF ITERATIONS"           =>       4.000000000000
  "SCF N ITERS"              =>       4.000000000000
  "SCF TOTAL ENERGY"         =>   -1908.882686315533
  "TWO-ELECTRON ENERGY"      =>    1895.605363931330



    Psi4 stopped on: Wednesday, 26 September 2018 03:44PM
    Psi4 wall time for execution: 0:05:05.27

*** Psi4 exiting successfully. Buy a developer a beer!
