
    -----------------------------------------------------------------------
          Psi4: An Open-Source Ab Initio Electronic Structure Package
                               Psi4 1.1a2.dev170 

                         Git: Rev {master} e4fcd91 dirty


    J. M. Turney, A. C. Simmonett, R. M. Parrish, E. G. Hohenstein,
    F. A. Evangelista, J. T. Fermann, B. J. Mintz, L. A. Burns, J. J. Wilke,
    M. L. Abrams, N. J. Russ, M. L. Leininger, C. L. Janssen, E. T. Seidl,
    W. D. Allen, H. F. Schaefer, R. A. King, E. F. Valeev, C. D. Sherrill,
    and T. D. Crawford, WIREs Comput. Mol. Sci. 2, 556-565 (2012)
    (doi: 10.1002/wcms.93)


                         Additional Contributions by
    A. E. DePrince, U. Bozkaya, A. Yu. Sokolov, D. G. A. Smith, R. Di Remigio,
    R. M. Richard, J. F. Gonthier, H. R. McAlexander, M. Saitow, and
    B. P. Pritchard
    -----------------------------------------------------------------------


    Psi4 started on: Thursday, 27 September 2018 12:14PM

    Process ID:  14391
    PSIDATADIR: /usr/local/software/miniconda2/envs/p4env/share/psi4
    Memory:     500.0 MiB
    Threads:    8
    
  ==> Input File <==

--------------------------------------------------------------------------
memory 20 Gb

molecule conf7 {
0 1
    C           -0.264894886677    -1.264076512584     0.170729619094
    O           -1.181918283125     0.610787393566     1.340050375244
    C           -0.269704270651     0.086704759073     0.487931070280
    C            0.706643416544     0.908659915583    -0.043369926383
    H            0.708256305955     1.948422802953     0.221104023252
    O           -2.712117487494     3.023706298253     2.144748885381
    C            1.678333092736     0.402101927351    -0.887885898850
    C            1.676194445041    -0.948422899036    -1.204815150364
    C            0.704006257824    -1.775731852594    -0.669589612098
    H            0.705800064396    -2.820413085204    -0.909444177101
    C           -2.367366003255     1.109199568166     0.760319623403
    H           -3.001114251367     0.298856168413     0.430416497686
    H           -2.138641917308     1.767703450642    -0.067207582778
    C           -3.044636471298     1.927730870761     1.843620608108
    O           -4.047113565835     1.279663771290     2.416226096506
    H           -4.415165488459     1.831803746964     3.100240611395
    CL           2.863114821289    -1.647076520717    -2.254311768410
    CL          -1.461888685681    -2.327525238574     0.834983515381
    CL           2.871137840182     1.486514039870    -1.516613236941
}
set globals {
  reference rhf
  opt_type ts
  g_convergence gau_tight
  basis 6-31G(d)
}
optimize('scf')
--------------------------------------------------------------------------

  Memory set to  20.000 GiB by Python script.
gradient() will perform analytic gradient computation.

*** tstart() called on dakota
*** at Thu Sep 27 12:14:28 2018


         ---------------------------------------------------------
                                   SCF
            by Justin Turney, Rob Parrish, and Andy Simmonett
                              RHF Reference
                        8 Threads,  20000 MiB Core
         ---------------------------------------------------------

  ==> Geometry <==

    Molecular point group: c1
    Full point group: C1

    Geometry (in Angstrom), charge = 0, multiplicity = 1:

       Center              X                  Y                   Z               Mass       
    ------------   -----------------  -----------------  -----------------  -----------------
           C         -0.264894886677    -1.264076512584     0.170729619094    12.000000000000
           O         -1.181918283125     0.610787393566     1.340050375244    15.994914619560
           C         -0.269704270651     0.086704759073     0.487931070280    12.000000000000
           C          0.706643416544     0.908659915583    -0.043369926383    12.000000000000
           H          0.708256305955     1.948422802953     0.221104023252     1.007825032070
           O         -2.712117487494     3.023706298253     2.144748885381    15.994914619560
           C          1.678333092736     0.402101927351    -0.887885898850    12.000000000000
           C          1.676194445041    -0.948422899036    -1.204815150364    12.000000000000
           C          0.704006257824    -1.775731852594    -0.669589612098    12.000000000000
           H          0.705800064396    -2.820413085204    -0.909444177101     1.007825032070
           C         -2.367366003255     1.109199568166     0.760319623403    12.000000000000
           H         -3.001114251367     0.298856168413     0.430416497686     1.007825032070
           H         -2.138641917308     1.767703450642    -0.067207582778     1.007825032070
           C         -3.044636471298     1.927730870761     1.843620608108    12.000000000000
           O         -4.047113565835     1.279663771290     2.416226096506    15.994914619560
           H         -4.415165488459     1.831803746964     3.100240611395     1.007825032070
          CL          2.863114821289    -1.647076520717    -2.254311768410    34.968852682000
          CL         -1.461888685681    -2.327525238574     0.834983515381    34.968852682000
          CL          2.871137840182     1.486514039870    -1.516613236941    34.968852682000

  Running in c1 symmetry.

  Rotational constants: A =      0.02660  B =      0.00842  C =      0.00649 [cm^-1]
  Rotational constants: A =    797.58937  B =    252.54675  C =    194.68111 [MHz]
  Nuclear repulsion = 1166.900463597108001

  Charge       = 0
  Multiplicity = 1
  Electrons    = 128
  Nalpha       = 64
  Nbeta        = 64

  ==> Algorithm <==

  SCF Algorithm Type is DF.
  DIIS enabled.
  MOM disabled.
  Fractional occupation disabled.
  Guess Type is SAD.
  Energy threshold   = 1.00e-08
  Density threshold  = 1.00e-08
  Integral threshold = 0.00e+00

  ==> Primary Basis <==

  Basis Set: file /usr/local/software/miniconda2/envs/p4env/share/psi4/basis/6-31g_d_.gbs
    Number of shells: 100
    Number of basis function: 232
    Number of Cartesian functions: 232
    Spherical Harmonics?: false
    Max angular momentum: 2

  ==> Pre-Iterations <==

   -------------------------------------------------------
    Irrep   Nso     Nmo     Nalpha   Nbeta   Ndocc  Nsocc
   -------------------------------------------------------
     A        232     232       0       0       0       0
   -------------------------------------------------------
    Total     232     232      64      64      64       0
   -------------------------------------------------------

  ==> Integral Setup <==

  ==> DFJK: Density-Fitted J/K Matrices <==

    J tasked:                  Yes
    K tasked:                  Yes
    wK tasked:                  No
    OpenMP threads:              8
    Integrals threads:           8
    Memory (MB):             14305
    Algorithm:                Core
    Integral Cache:           NONE
    Schwarz Cutoff:          1E-12
    Fitting Condition:       1E-12

   => Auxiliary Basis Set <=

  Basis Set: file /usr/local/software/miniconda2/envs/p4env/share/psi4/basis/cc-pvdz-jkfit.gbs
    Number of shells: 417
    Number of basis function: 1406
    Number of Cartesian functions: 1406
    Spherical Harmonics?: false
    Max angular momentum: 3

  Minimum eigenvalue in the overlap matrix is 3.6971723043E-04.
  Using Symmetric Orthogonalization.

  SCF Guess: Superposition of Atomic Densities via on-the-fly atomic UHF.

  ==> Iterations <==

                           Total Energy        Delta E     RMS |[F,P]|

   @DF-RHF iter   0: -1914.89698109269239   -1.91490e+03   2.85636e-02 
   @DF-RHF iter   1: -1908.44842665347119    6.44855e+00   3.25500e-03 
   @DF-RHF iter   2: -1908.76760821932703   -3.19182e-01   1.83448e-03 DIIS
   @DF-RHF iter   3: -1908.85668743906103   -8.90792e-02   5.48204e-04 DIIS
   @DF-RHF iter   4: -1908.87315229534215   -1.64649e-02   1.86590e-04 DIIS
   @DF-RHF iter   5: -1908.87510833110287   -1.95604e-03   7.56724e-05 DIIS
   @DF-RHF iter   6: -1908.87550471732743   -3.96386e-04   3.04761e-05 DIIS
   @DF-RHF iter   7: -1908.87558069253646   -7.59752e-05   1.05501e-05 DIIS
   @DF-RHF iter   8: -1908.87559131922603   -1.06267e-05   5.35122e-06 DIIS
   @DF-RHF iter   9: -1908.87559405438105   -2.73516e-06   2.31197e-06 DIIS
   @DF-RHF iter  10: -1908.87559469709595   -6.42715e-07   7.76388e-07 DIIS
   @DF-RHF iter  11: -1908.87559474598538   -4.88894e-08   2.87993e-07 DIIS
   @DF-RHF iter  12: -1908.87559475211810   -6.13272e-09   1.05045e-07 DIIS
   @DF-RHF iter  13: -1908.87559475284593   -7.27823e-10   3.75346e-08 DIIS
   @DF-RHF iter  14: -1908.87559475297417   -1.28239e-10   1.33803e-08 DIIS
   @DF-RHF iter  15: -1908.87559475299031   -1.61435e-11   5.02970e-09 DIIS

  ==> Post-Iterations <==

    Orbital Energies (a.u.)
    -----------------------

    Doubly Occupied:                                                      

       1A   -104.848743     2A   -104.847312     3A   -104.846908  
       4A    -20.633759     5A    -20.617671     6A    -20.571484  
       7A    -11.402091     8A    -11.337805     9A    -11.337002  
      10A    -11.334130    11A    -11.329193    12A    -11.320631  
      13A    -11.284081    14A    -11.275797    15A    -10.581780  
      16A    -10.580579    17A    -10.580132    18A     -8.051232  
      19A     -8.050024    20A     -8.049578    21A     -8.047760  
      22A     -8.047703    23A     -8.046488    24A     -8.046462  
      25A     -8.046039    26A     -8.046036    27A     -1.497532  
      28A     -1.448187    29A     -1.387859    30A     -1.244717  
      31A     -1.187163    32A     -1.154666    33A     -1.114434  
      34A     -1.055562    35A     -1.021740    36A     -0.980989  
      37A     -0.884195    38A     -0.856483    39A     -0.827066  
      40A     -0.748554    41A     -0.740057    42A     -0.718898  
      43A     -0.718055    44A     -0.678830    45A     -0.656313  
      46A     -0.653477    47A     -0.635600    48A     -0.628100  
      49A     -0.609290    50A     -0.592966    51A     -0.577378  
      52A     -0.561315    53A     -0.560307    54A     -0.528974  
      55A     -0.501258    56A     -0.500954    57A     -0.487864  
      58A     -0.481925    59A     -0.474140    60A     -0.461573  
      61A     -0.460277    62A     -0.456684    63A     -0.367304  
      64A     -0.347178  

    Virtual:                                                              

      65A      0.095782    66A      0.103745    67A      0.146469  
      68A      0.163106    69A      0.204487    70A      0.219103  
      71A      0.235500    72A      0.261277    73A      0.284930  
      74A      0.292528    75A      0.309342    76A      0.313350  
      77A      0.337682    78A      0.385267    79A      0.399635  
      80A      0.421211    81A      0.433795    82A      0.462624  
      83A      0.471370    84A      0.479399    85A      0.516833  
      86A      0.523029    87A      0.536359    88A      0.561019  
      89A      0.585169    90A      0.597701    91A      0.602051  
      92A      0.619301    93A      0.622973    94A      0.635573  
      95A      0.652426    96A      0.660345    97A      0.674489  
      98A      0.684581    99A      0.703675   100A      0.722201  
     101A      0.747205   102A      0.755833   103A      0.762812  
     104A      0.787888   105A      0.792124   106A      0.808476  
     107A      0.813538   108A      0.844251   109A      0.854345  
     110A      0.873045   111A      0.889445   112A      0.919658  
     113A      0.932297   114A      0.947942   115A      0.961319  
     116A      0.977759   117A      0.983593   118A      1.008480  
     119A      1.030997   120A      1.036425   121A      1.054212  
     122A      1.067831   123A      1.074367   124A      1.089520  
     125A      1.113118   126A      1.118376   127A      1.119918  
     128A      1.126374   129A      1.128475   130A      1.134944  
     131A      1.146686   132A      1.160609   133A      1.180131  
     134A      1.187539   135A      1.196157   136A      1.196913  
     137A      1.218588   138A      1.225132   139A      1.245364  
     140A      1.261019   141A      1.283172   142A      1.290264  
     143A      1.294197   144A      1.325006   145A      1.339226  
     146A      1.356682   147A      1.358455   148A      1.401080  
     149A      1.417232   150A      1.427307   151A      1.451970  
     152A      1.454138   153A      1.495722   154A      1.526989  
     155A      1.563963   156A      1.586745   157A      1.609619  
     158A      1.641091   159A      1.668460   160A      1.679286  
     161A      1.683604   162A      1.723582   163A      1.749405  
     164A      1.780402   165A      1.793468   166A      1.799317  
     167A      1.824634   168A      1.844578   169A      1.902850  
     170A      1.917417   171A      2.010388   172A      2.024157  
     173A      2.047509   174A      2.061188   175A      2.091362  
     176A      2.102322   177A      2.149514   178A      2.171587  
     179A      2.184439   180A      2.200695   181A      2.220217  
     182A      2.243582   183A      2.261653   184A      2.328934  
     185A      2.335831   186A      2.363350   187A      2.385655  
     188A      2.398293   189A      2.413847   190A      2.438305  
     191A      2.457639   192A      2.462803   193A      2.537848  
     194A      2.550478   195A      2.584092   196A      2.598808  
     197A      2.632975   198A      2.687294   199A      2.753512  
     200A      2.804559   201A      2.842187   202A      2.880139  
     203A      2.889504   204A      2.970794   205A      3.004605  
     206A      3.023959   207A      3.067345   208A      3.078651  
     209A      3.088834   210A      3.114448   211A      3.188250  
     212A      3.217604   213A      3.237151   214A      3.359765  
     215A      3.426088   216A      3.478228   217A      3.487086  
     218A      3.709644   219A      4.262395   220A      4.420433  
     221A      4.435244   222A      4.473714   223A      4.534412  
     224A      4.604692   225A      4.627546   226A      4.655161  
     227A      4.721225   228A      4.743823   229A      4.796739  
     230A      4.866942   231A      4.925021   232A      5.147711  

    Final Occupation by Irrep:
              A 
    DOCC [    64 ]

  Energy converged.

  @DF-RHF Final Energy: -1908.87559475299031

   => Energetics <=

    Nuclear Repulsion Energy =           1166.9004635971080006
    One-Electron Energy =               -4951.6155510154258081
    Two-Electron Energy =                1875.8394926653277253
    DFT Exchange-Correlation Energy =       0.0000000000000000
    Empirical Dispersion Energy =           0.0000000000000000
    PCM Polarization Energy =               0.0000000000000000
    EFP Energy =                            0.0000000000000000
    Total Energy =                      -1908.8755947529903096



Properties will be evaluated at   0.000000,   0.000000,   0.000000 Bohr

Properties computed using the SCF density matrix

  Nuclear Dipole Moment: (a.u.)
     X:   -11.5810      Y:     5.1384      Z:     5.3176

  Electronic Dipole Moment: (a.u.)
     X:    10.6368      Y:    -5.3601      Z:    -5.4837

  Dipole Moment: (a.u.)
     X:    -0.9442      Y:    -0.2217      Z:    -0.1661     Total:     0.9840

  Dipole Moment: (Debye)
     X:    -2.3999      Y:    -0.5635      Z:    -0.4221     Total:     2.5011


*** tstop() called on dakota at Thu Sep 27 12:14:57 2018
Module time:
	user time   =     105.72 seconds =       1.76 minutes
	system time =       2.56 seconds =       0.04 minutes
	total time  =         29 seconds =       0.48 minutes
Total time:
	user time   =     105.72 seconds =       1.76 minutes
	system time =       2.56 seconds =       0.04 minutes
	total time  =         29 seconds =       0.48 minutes

*** tstart() called on dakota
*** at Thu Sep 27 12:14:57 2018


         ------------------------------------------------------------
                                   SCF GRAD                          
                          Rob Parrish, Justin Turney,                
                       Andy Simmonett, and Alex Sokolov              
         ------------------------------------------------------------

  ==> Geometry <==

    Molecular point group: c1
    Full point group: C1

    Geometry (in Angstrom), charge = 0, multiplicity = 1:

       Center              X                  Y                   Z               Mass       
    ------------   -----------------  -----------------  -----------------  -----------------
           C         -0.264894886677    -1.264076512584     0.170729619094    12.000000000000
           O         -1.181918283125     0.610787393566     1.340050375244    15.994914619560
           C         -0.269704270651     0.086704759073     0.487931070280    12.000000000000
           C          0.706643416544     0.908659915583    -0.043369926383    12.000000000000
           H          0.708256305955     1.948422802953     0.221104023252     1.007825032070
           O         -2.712117487494     3.023706298253     2.144748885381    15.994914619560
           C          1.678333092736     0.402101927351    -0.887885898850    12.000000000000
           C          1.676194445041    -0.948422899036    -1.204815150364    12.000000000000
           C          0.704006257824    -1.775731852594    -0.669589612098    12.000000000000
           H          0.705800064396    -2.820413085204    -0.909444177101     1.007825032070
           C         -2.367366003255     1.109199568166     0.760319623403    12.000000000000
           H         -3.001114251367     0.298856168413     0.430416497686     1.007825032070
           H         -2.138641917308     1.767703450642    -0.067207582778     1.007825032070
           C         -3.044636471298     1.927730870761     1.843620608108    12.000000000000
           O         -4.047113565835     1.279663771290     2.416226096506    15.994914619560
           H         -4.415165488459     1.831803746964     3.100240611395     1.007825032070
          CL          2.863114821289    -1.647076520717    -2.254311768410    34.968852682000
          CL         -1.461888685681    -2.327525238574     0.834983515381    34.968852682000
          CL          2.871137840182     1.486514039870    -1.516613236941    34.968852682000

  Nuclear repulsion = 1166.900463597108001

  ==> Basis Set <==

  Basis Set: file /usr/local/software/miniconda2/envs/p4env/share/psi4/basis/6-31g_d_.gbs
    Number of shells: 100
    Number of basis function: 232
    Number of Cartesian functions: 232
    Spherical Harmonics?: false
    Max angular momentum: 2

  ==> DFJKGrad: Density-Fitted SCF Gradients <==

    Gradient:                    1
    J tasked:                  Yes
    K tasked:                  Yes
    wK tasked:                  No
    OpenMP threads:              8
    Integrals threads:           8
    Memory (MB):             14305
    Schwarz Cutoff:          0E+00
    Fitting Condition:       1E-12

   => Auxiliary Basis Set <=

  Basis Set: file /usr/local/software/miniconda2/envs/p4env/share/psi4/basis/cc-pvdz-jkfit.gbs
    Number of shells: 417
    Number of basis function: 1406
    Number of Cartesian functions: 1406
    Spherical Harmonics?: false
    Max angular momentum: 3


  -Total Gradient:
     Atom            X                  Y                   Z
    ------   -----------------  -----------------  -----------------
       1        0.000000715506    -0.000001181629    -0.000000264176
       2        0.000000189404     0.000000420412     0.000000051259
       3       -0.000001383688     0.000000137284     0.000001215997
       4        0.000001094458     0.000000603973    -0.000001335287
       5       -0.000000006417     0.000000284719    -0.000000088186
       6        0.000000702630    -0.000000707408    -0.000000547049
       7        0.000001246147    -0.000000330940     0.000000629664
       8        0.000000446563    -0.000000411236     0.000000714521
       9       -0.000001097870     0.000000673034     0.000000123557
      10        0.000000121318    -0.000000056642    -0.000000217453
      11       -0.000000803352    -0.000000645596     0.000000185444
      12       -0.000000421443    -0.000000302360    -0.000000086849
      13        0.000000328737     0.000000251942     0.000000003761
      14       -0.000000971976     0.000001375957     0.000001273553
      15        0.000000642836    -0.000000650307    -0.000000481993
      16        0.000000167314    -0.000000014682    -0.000000461387
      17       -0.000000459650     0.000000226496    -0.000000247214
      18       -0.000000059337     0.000000177549    -0.000000161856
      19       -0.000000450954     0.000000149528    -0.000000306382


*** tstop() called on dakota at Thu Sep 27 12:15:12 2018
Module time:
	user time   =      51.28 seconds =       0.85 minutes
	system time =       0.86 seconds =       0.01 minutes
	total time  =         15 seconds =       0.25 minutes
Total time:
	user time   =     157.01 seconds =       2.62 minutes
	system time =       3.42 seconds =       0.06 minutes
	total time  =         44 seconds =       0.73 minutes

			-----------------------------------------
			 OPTKING 2.0: for geometry optimizations 
			  - R.A. King,  Bethel University        
			-----------------------------------------

	Internal coordinates to be generated automatically.
	Detected frag 1 with atoms:  1 2 3 4 5 6 7 8 9 10 11 12 13 14 15 16 17 18 19
	---Fragment 1 Bond Connectivity---
	 1 : 3 9 18
	 2 : 3 11
	 3 : 1 2 4
	 4 : 3 5 7
	 5 : 4
	 6 : 14
	 7 : 4 8 19
	 8 : 7 9 17
	 9 : 1 8 10
	 10 : 9
	 11 : 2 12 13 14
	 12 : 11
	 13 : 11
	 14 : 6 11 15
	 15 : 14 16
	 16 : 15
	 17 : 8
	 18 : 1
	 19 : 7

	---Fragment 1 Geometry and Gradient---
	 C          -0.5005787898       -2.3887584198        0.3226322229
	 O          -2.2335018666        1.1542208993        2.5323282135
	 C          -0.5096672084        0.1638482491        0.9220560946
	 C           1.3353625309        1.7171183884       -0.0819572833
	 H           1.3384104501        3.6819854887        0.4178260508
	 O          -5.1251592916        5.7139768100        4.0529880172
	 C           3.1715899050        0.7598625202       -1.6778611861
	 C           3.1675484466       -1.7922595373       -2.2767706749
	 C           1.3303790231       -3.3556468868       -1.2653409883
	 H           1.3337688263       -5.3298083126       -1.7186004279
	 C          -4.4736734025        2.0960834105        1.4367958617
	 H          -5.6712840286        0.5647563114        0.8133693037
	 H          -4.0414475200        3.3404754059       -0.1270039255
	 C          -5.7535291049        3.6428834036        3.4839380423
	 O          -7.6479362681        2.4182140699        4.5660055975
	 H          -8.3434536046        3.4616074110        5.8586057016
	 CL          5.4105028992       -3.1125235441       -4.2600318604
	 CL         -2.7625692527       -4.3983852683        1.5778901695
	 CL          5.4256642077        2.8091044280       -2.8659836673
	             0.0000007155       -0.0000011816       -0.0000002642
	             0.0000001894        0.0000004204        0.0000000513
	            -0.0000013837        0.0000001373        0.0000012160
	             0.0000010945        0.0000006040       -0.0000013353
	            -0.0000000064        0.0000002847       -0.0000000882
	             0.0000007026       -0.0000007074       -0.0000005470
	             0.0000012461       -0.0000003309        0.0000006297
	             0.0000004466       -0.0000004112        0.0000007145
	            -0.0000010979        0.0000006730        0.0000001236
	             0.0000001213       -0.0000000566       -0.0000002175
	            -0.0000008034       -0.0000006456        0.0000001854
	            -0.0000004214       -0.0000003024       -0.0000000868
	             0.0000003287        0.0000002519        0.0000000038
	            -0.0000009720        0.0000013760        0.0000012736
	             0.0000006428       -0.0000006503       -0.0000004820
	             0.0000001673       -0.0000000147       -0.0000004614
	            -0.0000004597        0.0000002265       -0.0000002472
	            -0.0000000593        0.0000001775       -0.0000001619
	            -0.0000004510        0.0000001495       -0.0000003064

	Previous optimization step data not found.  Starting new optimization.

	---Fragment 1 Intrafragment Coordinates---
	 - Coordinate -           - BOHR/RAD -       - ANG/DEG -
	 R(1,3)           =         2.622059	       1.387534
	 R(1,9)           =         2.609394	       1.380832
	 R(1,18)          =         3.275801	       1.733479
	 R(2,3)           =         2.558402	       1.353848
	 R(2,11)          =         2.665645	       1.410599
	 R(3,4)           =         2.612437	       1.382442
	 R(4,5)           =         2.027436	       1.072873
	 R(4,7)           =         2.614379	       1.383470
	 R(6,14)          =         2.237877	       1.184234
	 R(7,8)           =         2.621457	       1.387215
	 R(7,19)          =         3.269844	       1.730327
	 R(8,9)           =         2.615791	       1.384217
	 R(8,17)          =         3.272196	       1.731572
	 R(9,10)          =         2.025529	       1.071864
	 R(11,12)         =         2.041542	       1.080338
	 R(11,13)         =         2.044701	       1.082009
	 R(11,14)         =         2.867300	       1.517310
	 R(14,15)         =         2.501892	       1.323944
	 R(15,16)         =         1.800897	       0.952994
	 B(1,3,2)         =         2.121251	     121.538750
	 B(1,3,4)         =         2.081180	     119.242833
	 B(1,9,8)         =         2.102104	     120.441689
	 B(1,9,10)        =         2.092662	     119.900687
	 B(2,3,4)         =         2.080133	     119.182866
	 B(2,11,12)       =         1.932063	     110.699076
	 B(2,11,13)       =         1.930194	     110.591974
	 B(2,11,14)       =         1.846581	     105.801284
	 B(3,1,9)         =         2.097030	     120.150989
	 B(3,1,18)        =         2.102767	     120.479689
	 B(3,2,11)        =         2.031245	     116.381764
	 B(3,4,5)         =         2.074350	     118.851521
	 B(3,4,7)         =         2.109402	     120.859830
	 B(4,7,8)         =         2.088453	     119.659561
	 B(4,7,19)        =         2.067474	     118.457516
	 B(5,4,7)         =         2.099336	     120.283082
	 B(6,14,11)       =         2.159725	     123.743148
	 B(6,14,15)       =         2.159941	     123.755478
	 B(7,8,9)         =         2.088181	     119.643981
	 B(7,8,17)        =         2.129659	     122.020470
	 B(8,7,19)        =         2.127255	     121.882710
	 B(8,9,10)        =         2.088419	     119.657587
	 B(9,1,18)        =         2.083341	     119.366653
	 B(9,8,17)        =         2.065339	     118.335216
	 B(11,14,15)      =         1.963518	     112.501283
	 B(12,11,13)      =         1.925115	     110.300980
	 B(12,11,14)      =         1.939942	     111.150494
	 B(13,11,14)      =         1.888183	     108.184916
	 B(14,15,16)      =         1.895742	     108.618021
	 D(1,3,2,11)      =        -1.597656	     -91.538937
	 D(1,3,4,5)       =        -3.121205	    -178.831866
	 D(1,3,4,7)       =         0.005448	       0.312149
	 D(1,9,8,7)       =         0.005442	       0.311815
	 D(1,9,8,17)      =        -3.139739	    -179.893786
	 D(2,3,1,9)       =        -3.106647	    -177.997764
	 D(2,3,1,18)      =         0.024505	       1.404060
	 D(2,3,4,5)       =        -0.016872	      -0.966672
	 D(2,3,4,7)       =         3.109781	     178.177343
	 D(2,11,14,6)     =         1.363429	      78.118743
	 D(2,11,14,15)    =        -1.776316	    -101.775414
	 D(3,1,9,8)       =        -0.002203	      -0.126244
	 D(3,1,9,10)      =         3.138171	     179.803968
	 D(3,2,11,12)     =         1.274905	      73.046656
	 D(3,2,11,13)     =        -0.864157	     -49.512572
	 D(3,2,11,14)     =        -2.904861	    -166.436286
	 D(3,4,7,8)       =        -0.002228	      -0.127645
	 D(3,4,7,19)      =        -3.140951	    -179.963243
	 D(4,3,1,9)       =        -0.003223	      -0.184648
	 D(4,3,1,18)      =         3.127930	     179.217176
	 D(4,3,2,11)      =         1.582083	      90.646667
	 D(4,7,8,9)       =        -0.003230	      -0.185050
	 D(4,7,8,17)      =        -3.141097	    -179.971610
	 D(5,4,7,8)       =         3.124212	     179.004149
	 D(5,4,7,19)      =        -0.014512	      -0.831449
	 D(6,14,11,12)    =        -2.821477	    -161.658751
	 D(6,14,11,13)    =        -0.705403	     -40.416596
	 D(6,14,15,16)    =        -0.025071	      -1.436470
	 D(7,8,9,10)      =        -3.134935	    -179.618566
	 D(8,9,1,18)      =        -3.133472	    -179.534719
	 D(9,8,7,19)      =         3.135392	     179.644731
	 D(10,9,1,18)     =         0.006903	       0.395493
	 D(10,9,8,17)     =         0.003069	       0.175833
	 D(11,14,15,16)   =         3.114674	     178.457673
	 D(12,11,14,15)   =         0.321962	      18.447091
	 D(13,11,14,15)   =         2.438037	     139.689246
	 D(17,8,7,19)     =        -0.002475	      -0.141829
	 R(11,18)         =         6.717582	       3.554791

	Current energy   :     -1908.8755947530

	Generating empirical Hessian (Schlegel '84) for each fragment.
	Taking PRFO optimization step.
	Maximizing along 1 lowest eigenvalue of Hessian.

 RFO min eigenvalues
 -0.000000 -0.000000 -0.000000 -0.000000 -0.000000 -0.000000 -0.000000 -0.000000
 -0.000000 -0.000000 -0.000000 -0.000000 -0.000000 -0.000000  0.000000  0.000000
  0.000000  0.000000  0.000000  0.000000  0.000000  0.000000  0.000000  0.000000
  0.000000  0.000000  0.000000  0.000000  0.000000  0.000000  0.000000  0.000000
  0.000000  0.000000  0.000000  0.002656  0.003544  0.005744  0.011858  0.015006
  0.018380  0.019322  0.020021  0.020117  0.020144  0.020267  0.020432  0.020465
  0.020502  0.065448  0.066150  0.073241  0.105871  0.134871  0.159983  0.160000
  0.160000  0.220681  0.230989  0.239720  0.249882  0.249983  0.249998  0.249998
  0.249999  0.250000  0.250000  0.306271  0.319944  0.323437  0.324744  0.357527
  0.359536  0.368694  0.369955  0.414029  0.439071  0.439737  0.472053  0.482343
  0.485299  0.487684  0.537386  0.570081  0.609591  1.131618

 RFO max eigenvalues
 -0.000000  0.000000
	Norm of target step-size    0.00011

	Back-transformation to cartesian coordinates...
	Successfully converged to displaced geometry.

	--- Internal Coordinate Step in ANG or DEG, aJ/ANG or AJ/DEG ---
	 ---------------------------------------------------------------------------
	   Coordinate                Previous        Force       Change         New 
	   ----------                --------       ------       ------       ------
	    1 R(1,3)          =      1.387534    -0.000006    -0.000001     1.387533
	    2 R(1,9)          =      1.380832     0.000006     0.000001     1.380833
	    3 R(1,18)         =      1.733479     0.000001     0.000000     1.733479
	    4 R(2,3)          =      1.353848    -0.000000    -0.000000     1.353848
	    5 R(2,11)         =      1.410599    -0.000002    -0.000000     1.410598
	    6 R(3,4)          =      1.382442    -0.000015    -0.000002     1.382440
	    7 R(4,5)          =      1.072873    -0.000002    -0.000000     1.072872
	    8 R(4,7)          =      1.383470    -0.000000    -0.000000     1.383470
	    9 R(6,14)         =      1.184234     0.000005     0.000000     1.184234
	   10 R(7,8)          =      1.387215     0.000001     0.000000     1.387215
	   11 R(7,19)         =      1.730327     0.000001     0.000000     1.730327
	   12 R(8,9)          =      1.384217     0.000000     0.000000     1.384217
	   13 R(8,17)         =      1.731572     0.000002     0.000000     1.731572
	   14 R(9,10)         =      1.071864    -0.000001    -0.000000     1.071864
	   15 R(11,12)        =      1.080338    -0.000004    -0.000001     1.080337
	   16 R(11,13)        =      1.082009    -0.000002    -0.000000     1.082009
	   17 R(11,14)        =      1.517310     0.000003     0.000001     1.517311
	   18 R(14,15)        =      1.323944     0.000006     0.000001     1.323945
	   19 R(15,16)        =      0.952994     0.000003     0.000000     0.952994
	   20 B(1,3,2)        =    121.538750     0.000000     0.000013   121.538763
	   21 B(1,3,4)        =    119.242833     0.000000     0.000094   119.242927
	   22 B(1,9,8)        =    120.441689    -0.000000    -0.000071   120.441618
	   23 B(1,9,10)       =    119.900687    -0.000000    -0.000045   119.900642
	   24 B(2,3,4)        =    119.182866    -0.000000    -0.000125   119.182741
	   25 B(2,11,12)      =    110.699076    -0.000000    -0.000211   110.698864
	   26 B(2,11,13)      =    110.591974     0.000000     0.000194   110.592168
	   27 B(2,11,14)      =    105.801284     0.000000     0.000157   105.801441
	   28 B(3,1,9)        =    120.150989    -0.000000     0.000005   120.150994
	   29 B(3,1,18)       =    120.479689    -0.000000    -0.000060   120.479629
	   30 B(3,2,11)       =    116.381764    -0.000000    -0.000039   116.381725
	   31 B(3,4,5)        =    118.851521    -0.000000    -0.000012   118.851509
	   32 B(3,4,7)        =    120.859830     0.000000    -0.000039   120.859792
	   33 B(4,7,8)        =    119.659561     0.000000     0.000040   119.659601
	   34 B(4,7,19)       =    118.457516     0.000000     0.000038   118.457554
	   35 B(5,4,7)        =    120.283082     0.000000     0.000048   120.283129
	   36 B(6,14,11)      =    123.743148     0.000000     0.000099   123.743248
	   37 B(6,14,15)      =    123.755478    -0.000000    -0.000364   123.755115
	   38 B(7,8,9)        =    119.643981    -0.000000    -0.000032   119.643949
	   39 B(7,8,17)       =    122.020470     0.000000     0.000029   122.020499
	   40 B(8,7,19)       =    121.882710    -0.000000    -0.000083   121.882627
	   41 B(8,9,10)       =    119.657587     0.000000     0.000115   119.657703
	   42 B(9,1,18)       =    119.366653     0.000000     0.000047   119.366699
	   43 B(9,8,17)       =    118.335216     0.000000    -0.000002   118.335214
	   44 B(11,14,15)     =    112.501283     0.000000     0.000266   112.501550
	   45 B(12,11,13)     =    110.300980    -0.000000    -0.000128   110.300852
	   46 B(12,11,14)     =    111.150494    -0.000000    -0.000036   111.150457
	   47 B(13,11,14)     =    108.184916    -0.000000     0.000043   108.184959
	   48 B(14,15,16)     =    108.618021     0.000000     0.000123   108.618145
	   49 D(1,3,2,11)     =    -91.538937    -0.000000    -0.000786   -91.539723
	   50 D(1,3,4,5)      =   -178.831866     0.000000     0.000630  -178.831236
	   51 D(1,3,4,7)      =      0.312149     0.000000     0.000411     0.312560
	   52 D(1,9,8,7)      =      0.311815     0.000000     0.000477     0.312292
	   53 D(1,9,8,17)     =   -179.893786    -0.000000    -0.001147  -179.894933
	   54 D(2,3,1,9)      =   -177.997764     0.000000     0.000885  -177.996879
	   55 D(2,3,1,18)     =      1.404060    -0.000000    -0.000073     1.403986
	   56 D(2,3,4,5)      =     -0.966672     0.000000     0.000090    -0.966583
	   57 D(2,3,4,7)      =    178.177343    -0.000000    -0.000129   178.177214
	   58 D(2,11,14,6)    =     78.118743     0.000000     0.002142    78.120885
	   59 D(2,11,14,15)   =   -101.775414     0.000000     0.000754  -101.774661
	   60 D(3,1,9,8)      =     -0.126244    -0.000000    -0.000774    -0.127017
	   61 D(3,1,9,10)     =    179.803968    -0.000000    -0.000900   179.803068
	   62 D(3,2,11,12)    =     73.046656    -0.000000     0.000731    73.047387
	   63 D(3,2,11,13)    =    -49.512572     0.000000     0.000905   -49.511667
	   64 D(3,2,11,14)    =   -166.436286    -0.000000     0.000666  -166.435620
	   65 D(3,4,7,8)      =     -0.127645    -0.000000    -0.000705    -0.128350
	   66 D(3,4,7,19)     =   -179.963243     0.000000     0.001262  -179.961981
	   67 D(4,3,1,9)      =     -0.184648     0.000000     0.000328    -0.184320
	   68 D(4,3,1,18)     =    179.217176    -0.000000    -0.000630   179.216546
	   69 D(4,3,2,11)     =     90.646667    -0.000000    -0.000234    90.646432
	   70 D(4,7,8,9)      =     -0.185050     0.000000     0.000258    -0.184793
	   71 D(4,7,8,17)     =   -179.971610     0.000000     0.001943  -179.969667
	   72 D(5,4,7,8)      =    179.004149    -0.000000    -0.000927   179.003222
	   73 D(5,4,7,19)     =     -0.831449     0.000000     0.001039    -0.830410
	   74 D(6,14,11,12)   =   -161.658751     0.000000     0.001964  -161.656787
	   75 D(6,14,11,13)   =    -40.416596    -0.000000     0.001811   -40.414784
	   76 D(6,14,15,16)   =     -1.436470    -0.000000    -0.001355    -1.437825
	   77 D(7,8,9,10)     =   -179.618566     0.000000     0.000603  -179.617963
	   78 D(8,9,1,18)     =   -179.534719     0.000000     0.000175  -179.534544
	   79 D(9,8,7,19)     =    179.644731    -0.000000    -0.001778   179.642953
	   80 D(10,9,1,18)    =      0.395493     0.000000     0.000048     0.395541
	   81 D(10,9,8,17)    =      0.175833    -0.000000    -0.001020     0.174812
	   82 D(11,14,15,16)  =    178.457673    -0.000000     0.000034   178.457707
	   83 D(12,11,14,15)  =     18.447091    -0.000000     0.000575    18.447666
	   84 D(13,11,14,15)  =    139.689246    -0.000000     0.000423   139.689670
	   85 D(17,8,7,19)    =     -0.141829    -0.000000    -0.000092    -0.141921
	   86 R(11,18)        =      3.554791     0.000001     0.000011     3.554802
	 ---------------------------------------------------------------------------
	Successfully symmetrized geometry.

  ==> Convergence Check <==

  Measures of convergence in internal coordinates in au.
  Criteria marked as inactive (o), active & met (*), and active & unmet ( ).
  --------------------------------------------------------------------------------------------- ~
   Step     Total Energy     Delta E     MAX Force     RMS Force      MAX Disp      RMS Disp    ~
  --------------------------------------------------------------------------------------------- ~
    Convergence Criteria             o    1.50e-05 *    1.00e-05 *    6.00e-05 *    4.00e-05 *  ~
  --------------------------------------------------------------------------------------------- ~
      1   -1908.87559475   -1.91e+03 o    1.88e-06 *    4.20e-07 *    3.74e-05 *    1.14e-05 *  ~
  ---------------------------------------------------------------------------------------------


  **** Optimization is complete! (in 1 steps) ****

  ==> Optimization Summary <==

  Measures of convergence in internal coordinates in au.
  --------------------------------------------------------------------------------------------------------------- ~
   Step         Total Energy             Delta E       MAX Force       RMS Force        MAX Disp        RMS Disp  ~
  --------------------------------------------------------------------------------------------------------------- ~
      1   -1908.875594752990  -1908.875594752990      0.00000188      0.00000042      0.00003739      0.00001136  ~
  --------------------------------------------------------------------------------------------------------------- ~

	Writing optimization data to binary file.
	Final energy is  -1908.8755947529903
	Final (previous) structure:
	Cartesian Geometry (in Angstrom)
	    C    -0.2648948867  -1.2640765126   0.1707296191
	    O    -1.1819182831   0.6107873936   1.3400503752
	    C    -0.2697042707   0.0867047591   0.4879310703
	    C     0.7066434165   0.9086599156  -0.0433699264
	    H     0.7082563060   1.9484228030   0.2211040233
	    O    -2.7121174875   3.0237062983   2.1447488854
	    C     1.6783330927   0.4021019274  -0.8878858989
	    C     1.6761944450  -0.9484228990  -1.2048151504
	    C     0.7040062578  -1.7757318526  -0.6695896121
	    H     0.7058000644  -2.8204130852  -0.9094441771
	    C    -2.3673660033   1.1091995682   0.7603196234
	    H    -3.0011142514   0.2988561684   0.4304164977
	    H    -2.1386419173   1.7677034506  -0.0672075828
	    C    -3.0446364713   1.9277308708   1.8436206081
	    O    -4.0471135658   1.2796637713   2.4162260965
	    H    -4.4151654885   1.8318037470   3.1002406114
	   CL     2.8631148213  -1.6470765207  -2.2543117684
	   CL    -1.4618886857  -2.3275252386   0.8349835154
	   CL     2.8711378402   1.4865140399  -1.5166132369
	Saving final (previous) structure.
			--------------------------
			 OPTKING Finished Execution 
			--------------------------

    Final optimized geometry and variables:
    Molecular point group: c1
    Full point group: C1

    Geometry (in Angstrom), charge = 0, multiplicity = 1:

    C           -0.264894886677    -1.264076512584     0.170729619094
    O           -1.181918283125     0.610787393566     1.340050375244
    C           -0.269704270651     0.086704759073     0.487931070280
    C            0.706643416544     0.908659915583    -0.043369926383
    H            0.708256305955     1.948422802953     0.221104023252
    O           -2.712117487494     3.023706298253     2.144748885381
    C            1.678333092736     0.402101927351    -0.887885898850
    C            1.676194445041    -0.948422899036    -1.204815150364
    C            0.704006257824    -1.775731852594    -0.669589612098
    H            0.705800064396    -2.820413085204    -0.909444177101
    C           -2.367366003255     1.109199568166     0.760319623403
    H           -3.001114251367     0.298856168413     0.430416497686
    H           -2.138641917308     1.767703450642    -0.067207582778
    C           -3.044636471298     1.927730870761     1.843620608108
    O           -4.047113565835     1.279663771290     2.416226096506
    H           -4.415165488459     1.831803746964     3.100240611395
    CL           2.863114821289    -1.647076520717    -2.254311768410
    CL          -1.461888685681    -2.327525238574     0.834983515381
    CL           2.871137840182     1.486514039870    -1.516613236941

	Cleaning optimization helper files.

*** Psi4 exiting successfully. Buy a developer a beer!
