
    -----------------------------------------------------------------------
          Psi4: An Open-Source Ab Initio Electronic Structure Package
                               Psi4 1.1a2.dev170 

                         Git: Rev {master} e4fcd91 dirty


    J. M. Turney, A. C. Simmonett, R. M. Parrish, E. G. Hohenstein,
    F. A. Evangelista, J. T. Fermann, B. J. Mintz, L. A. Burns, J. J. Wilke,
    M. L. Abrams, N. J. Russ, M. L. Leininger, C. L. Janssen, E. T. Seidl,
    W. D. Allen, H. F. Schaefer, R. A. King, E. F. Valeev, C. D. Sherrill,
    and T. D. Crawford, WIREs Comput. Mol. Sci. 2, 556-565 (2012)
    (doi: 10.1002/wcms.93)


                         Additional Contributions by
    A. E. DePrince, U. Bozkaya, A. Yu. Sokolov, D. G. A. Smith, R. Di Remigio,
    R. M. Richard, J. F. Gonthier, H. R. McAlexander, M. Saitow, and
    B. P. Pritchard
    -----------------------------------------------------------------------


    Psi4 started on: Thursday, 27 September 2018 12:15PM

    Process ID:  14433
    PSIDATADIR: /usr/local/software/miniconda2/envs/p4env/share/psi4
    Memory:     500.0 MiB
    Threads:    8
    
  ==> Input File <==

--------------------------------------------------------------------------
memory 20 Gb

molecule conf8 {
0 1
C          1.24300       -0.55300       -0.65700
O          1.24700        1.78400       -0.14900
C          0.57800        0.61900       -0.32200
C         -0.80200        0.60500       -0.23200
H         -1.31100        1.51600        0.01000
O          0.31300        2.16900        2.87000
C         -1.51600       -0.55900       -0.45500
C         -0.84400       -1.72900       -0.77500
C          0.53600       -1.71800       -0.87700
H          1.05700       -2.61900       -1.13400
C          1.85900        2.01700        1.08900
H          2.72600        2.63500        0.90300
H          2.19700        1.10200        1.55600
C          1.00100        2.75300        2.09900
O          1.10600        4.07100        2.06700
H          0.54500        4.42700        2.75100
Cl        -1.67800       -3.21900       -1.06200
Cl         2.97000       -0.56900       -0.82600
Cl        -3.24100       -0.50300       -0.32300
}
set globals {
  reference rhf
  opt_type ts
  g_convergence gau_tight
  basis 6-31G(d)
}
optimize('scf')
--------------------------------------------------------------------------

  Memory set to  20.000 GiB by Python script.
gradient() will perform analytic gradient computation.

*** tstart() called on dakota
*** at Thu Sep 27 12:15:29 2018


         ---------------------------------------------------------
                                   SCF
            by Justin Turney, Rob Parrish, and Andy Simmonett
                              RHF Reference
                        8 Threads,  20000 MiB Core
         ---------------------------------------------------------

  ==> Geometry <==

    Molecular point group: c1
    Full point group: C1

    Geometry (in Angstrom), charge = 0, multiplicity = 1:

       Center              X                  Y                   Z               Mass       
    ------------   -----------------  -----------------  -----------------  -----------------
           C          1.225660808842    -0.563349687632    -0.664188941557    12.000000000000
           O          1.229660808842     1.773650312368    -0.156188941557    15.994914619560
           C          0.560660808842     0.608650312368    -0.329188941557    12.000000000000
           C         -0.819339191158     0.594650312368    -0.239188941557    12.000000000000
           H         -1.328339191158     1.505650312368     0.002811058443     1.007825032070
           O          0.295660808842     2.158650312368     2.862811058443    15.994914619560
           C         -1.533339191158    -0.569349687632    -0.462188941557    12.000000000000
           C         -0.861339191158    -1.739349687632    -0.782188941557    12.000000000000
           C          0.518660808842    -1.728349687632    -0.884188941557    12.000000000000
           H          1.039660808842    -2.629349687632    -1.141188941557     1.007825032070
           C          1.841660808842     2.006650312368     1.081811058443    12.000000000000
           H          2.708660808842     2.624650312368     0.895811058443     1.007825032070
           H          2.179660808842     1.091650312368     1.548811058443     1.007825032070
           C          0.983660808842     2.742650312368     2.091811058443    12.000000000000
           O          1.088660808842     4.060650312368     2.059811058443    15.994914619560
           H          0.527660808842     4.416650312368     2.743811058443     1.007825032070
          CL         -1.695339191158    -3.229349687632    -1.069188941557    34.968852682000
          CL          2.952660808842    -0.579349687632    -0.833188941557    34.968852682000
          CL         -3.258339191158    -0.513349687632    -0.330188941557    34.968852682000

  Running in c1 symmetry.

  Rotational constants: A =      0.02158  B =      0.01014  C =      0.00734 [cm^-1]
  Rotational constants: A =    646.94634  B =    303.87646  C =    220.12823 [MHz]
  Nuclear repulsion = 1182.519718701826832

  Charge       = 0
  Multiplicity = 1
  Electrons    = 128
  Nalpha       = 64
  Nbeta        = 64

  ==> Algorithm <==

  SCF Algorithm Type is DF.
  DIIS enabled.
  MOM disabled.
  Fractional occupation disabled.
  Guess Type is SAD.
  Energy threshold   = 1.00e-08
  Density threshold  = 1.00e-08
  Integral threshold = 0.00e+00

  ==> Primary Basis <==

  Basis Set: file /usr/local/software/miniconda2/envs/p4env/share/psi4/basis/6-31g_d_.gbs
    Number of shells: 100
    Number of basis function: 232
    Number of Cartesian functions: 232
    Spherical Harmonics?: false
    Max angular momentum: 2

  ==> Pre-Iterations <==

   -------------------------------------------------------
    Irrep   Nso     Nmo     Nalpha   Nbeta   Ndocc  Nsocc
   -------------------------------------------------------
     A        232     232       0       0       0       0
   -------------------------------------------------------
    Total     232     232      64      64      64       0
   -------------------------------------------------------

  ==> Integral Setup <==

  ==> DFJK: Density-Fitted J/K Matrices <==

    J tasked:                  Yes
    K tasked:                  Yes
    wK tasked:                  No
    OpenMP threads:              8
    Integrals threads:           8
    Memory (MB):             14305
    Algorithm:                Core
    Integral Cache:           NONE
    Schwarz Cutoff:          1E-12
    Fitting Condition:       1E-12

   => Auxiliary Basis Set <=

  Basis Set: file /usr/local/software/miniconda2/envs/p4env/share/psi4/basis/cc-pvdz-jkfit.gbs
    Number of shells: 417
    Number of basis function: 1406
    Number of Cartesian functions: 1406
    Spherical Harmonics?: false
    Max angular momentum: 3

  Minimum eigenvalue in the overlap matrix is 3.6777908697E-04.
  Using Symmetric Orthogonalization.

  SCF Guess: Superposition of Atomic Densities via on-the-fly atomic UHF.

  ==> Iterations <==

                           Total Energy        Delta E     RMS |[F,P]|

   @DF-RHF iter   0: -1913.86894009415687   -1.91387e+03   2.75614e-02 
   @DF-RHF iter   1: -1908.38102970048953    5.48791e+00   3.73332e-03 
   @DF-RHF iter   2: -1908.74319558344678   -3.62166e-01   2.21447e-03 DIIS
   @DF-RHF iter   3: -1908.85639291626558   -1.13197e-01   5.36758e-04 DIIS
   @DF-RHF iter   4: -1908.87146204979376   -1.50691e-02   1.88649e-04 DIIS
   @DF-RHF iter   5: -1908.87313356000345   -1.67151e-03   7.20628e-05 DIIS
   @DF-RHF iter   6: -1908.87347472024385   -3.41160e-04   2.91084e-05 DIIS
   @DF-RHF iter   7: -1908.87354719767268   -7.24774e-05   1.11695e-05 DIIS
   @DF-RHF iter   8: -1908.87355947051356   -1.22728e-05   5.06696e-06 DIIS
   @DF-RHF iter   9: -1908.87356215783484   -2.68732e-06   2.30060e-06 DIIS
   @DF-RHF iter  10: -1908.87356272554780   -5.67713e-07   8.73139e-07 DIIS
   @DF-RHF iter  11: -1908.87356279597338   -7.04256e-08   3.13715e-07 DIIS
   @DF-RHF iter  12: -1908.87356280401264   -8.03925e-09   1.34278e-07 DIIS
   @DF-RHF iter  13: -1908.87356280515246   -1.13982e-09   4.24040e-08 DIIS
   @DF-RHF iter  14: -1908.87356280532299   -1.70530e-10   1.39887e-08 DIIS
   @DF-RHF iter  15: -1908.87356280533095   -7.95808e-12   5.11381e-09 DIIS

  ==> Post-Iterations <==

    Orbital Energies (a.u.)
    -----------------------

    Doubly Occupied:                                                      

       1A   -104.849037     2A   -104.844635     3A   -104.844344  
       4A    -20.638246     5A    -20.620968     6A    -20.574093  
       7A    -11.401722     8A    -11.336964     9A    -11.334279  
      10A    -11.331561    11A    -11.327775    12A    -11.319039  
      13A    -11.281918    14A    -11.273556    15A    -10.582084  
      16A    -10.577860    17A    -10.577607    18A     -8.051527  
      19A     -8.048082    20A     -8.048025    21A     -8.047307  
      22A     -8.047054    23A     -8.043769    24A     -8.043764  
      25A     -8.043515    26A     -8.043495    27A     -1.501016  
      28A     -1.450900    29A     -1.390552    30A     -1.242463  
      31A     -1.185664    32A     -1.152147    33A     -1.113197  
      34A     -1.054265    35A     -1.020128    36A     -0.981234  
      37A     -0.881994    38A     -0.865660    39A     -0.822244  
      40A     -0.750417    41A     -0.739910    42A     -0.724191  
      43A     -0.700367    44A     -0.687200    45A     -0.675154  
      46A     -0.649355    47A     -0.637045    48A     -0.616264  
      49A     -0.607367    50A     -0.591727    51A     -0.573454  
      52A     -0.565731    53A     -0.547695    54A     -0.529173  
      55A     -0.511601    56A     -0.498808    57A     -0.498439  
      58A     -0.483972    59A     -0.473379    60A     -0.459000  
      61A     -0.457787    62A     -0.448136    63A     -0.364259  
      64A     -0.344990  

    Virtual:                                                              

      65A      0.098590    66A      0.106169    67A      0.149225  
      68A      0.157052    69A      0.204855    70A      0.215041  
      71A      0.236704    72A      0.273736    73A      0.277519  
      74A      0.289112    75A      0.303013    76A      0.322431  
      77A      0.347071    78A      0.372265    79A      0.406841  
      80A      0.427230    81A      0.434366    82A      0.446611  
      83A      0.478057    84A      0.494615    85A      0.511730  
      86A      0.530415    87A      0.539322    88A      0.571495  
      89A      0.585525    90A      0.600472    91A      0.605545  
      92A      0.618479    93A      0.628239    94A      0.639774  
      95A      0.655262    96A      0.665743    97A      0.675527  
      98A      0.685007    99A      0.709874   100A      0.717706  
     101A      0.736439   102A      0.751312   103A      0.772212  
     104A      0.793166   105A      0.808767   106A      0.812717  
     107A      0.819027   108A      0.844808   109A      0.850960  
     110A      0.879545   111A      0.890129   112A      0.908325  
     113A      0.920735   114A      0.941933   115A      0.962706  
     116A      0.968171   117A      0.999298   118A      1.006675  
     119A      1.029461   120A      1.044895   121A      1.049959  
     122A      1.068506   123A      1.076634   124A      1.097405  
     125A      1.117567   126A      1.119636   127A      1.120336  
     128A      1.129348   129A      1.133222   130A      1.137817  
     131A      1.143457   132A      1.149010   133A      1.155425  
     134A      1.192259   135A      1.195408   136A      1.205162  
     137A      1.213410   138A      1.223313   139A      1.250422  
     140A      1.268010   141A      1.277655   142A      1.298456  
     143A      1.313601   144A      1.318537   145A      1.333121  
     146A      1.335236   147A      1.370785   148A      1.416368  
     149A      1.421849   150A      1.432316   151A      1.447500  
     152A      1.461839   153A      1.483894   154A      1.555951  
     155A      1.569363   156A      1.597365   157A      1.624490  
     158A      1.638435   159A      1.666383   160A      1.678272  
     161A      1.686589   162A      1.692115   163A      1.752632  
     164A      1.784890   165A      1.796752   166A      1.820809  
     167A      1.830973   168A      1.866398   169A      1.897226  
     170A      1.959888   171A      1.972889   172A      2.019712  
     173A      2.035857   174A      2.075352   175A      2.083082  
     176A      2.097978   177A      2.132459   178A      2.138948  
     179A      2.168562   180A      2.221492   181A      2.225733  
     182A      2.232539   183A      2.268794   184A      2.313149  
     185A      2.333383   186A      2.348281   187A      2.385077  
     188A      2.410109   189A      2.420027   190A      2.438028  
     191A      2.441948   192A      2.504947   193A      2.519215  
     194A      2.578425   195A      2.591519   196A      2.594277  
     197A      2.623164   198A      2.671561   199A      2.770499  
     200A      2.833398   201A      2.855195   202A      2.879030  
     203A      2.909465   204A      2.973401   205A      3.004419  
     206A      3.030297   207A      3.072741   208A      3.077669  
     209A      3.098526   210A      3.114137   211A      3.183264  
     212A      3.220990   213A      3.230354   214A      3.344800  
     215A      3.388366   216A      3.468479   217A      3.488329  
     218A      3.711624   219A      4.267451   220A      4.423141  
     221A      4.442215   222A      4.488184   223A      4.519263  
     224A      4.589806   225A      4.608755   226A      4.668385  
     227A      4.727287   228A      4.750005   229A      4.799192  
     230A      4.872090   231A      4.925447   232A      5.147296  

    Final Occupation by Irrep:
              A 
    DOCC [    64 ]

  Energy converged.

  @DF-RHF Final Energy: -1908.87356280533095

   => Energetics <=

    Nuclear Repulsion Energy =           1182.5197187018268323
    One-Electron Energy =               -4982.9283386526713002
    Two-Electron Energy =                1891.5350571455137469
    DFT Exchange-Correlation Energy =       0.0000000000000000
    Empirical Dispersion Energy =           0.0000000000000000
    PCM Polarization Energy =               0.0000000000000000
    EFP Energy =                            0.0000000000000000
    Total Energy =                      -1908.8735628053309483



Properties will be evaluated at   0.000000,   0.000000,   0.000000 Bohr

Properties computed using the SCF density matrix

  Nuclear Dipole Moment: (a.u.)
     X:     6.6510      Y:    10.5659      Z:     5.8635

  Electronic Dipole Moment: (a.u.)
     X:    -6.0188      Y:    -9.8441      Z:    -5.5531

  Dipole Moment: (a.u.)
     X:     0.6323      Y:     0.7218      Z:     0.3103     Total:     1.0085

  Dipole Moment: (Debye)
     X:     1.6071      Y:     1.8347      Z:     0.7888     Total:     2.5634


*** tstop() called on dakota at Thu Sep 27 12:15:58 2018
Module time:
	user time   =     111.28 seconds =       1.85 minutes
	system time =       2.57 seconds =       0.04 minutes
	total time  =         29 seconds =       0.48 minutes
Total time:
	user time   =     111.28 seconds =       1.85 minutes
	system time =       2.57 seconds =       0.04 minutes
	total time  =         29 seconds =       0.48 minutes

*** tstart() called on dakota
*** at Thu Sep 27 12:15:58 2018


         ------------------------------------------------------------
                                   SCF GRAD                          
                          Rob Parrish, Justin Turney,                
                       Andy Simmonett, and Alex Sokolov              
         ------------------------------------------------------------

  ==> Geometry <==

    Molecular point group: c1
    Full point group: C1

    Geometry (in Angstrom), charge = 0, multiplicity = 1:

       Center              X                  Y                   Z               Mass       
    ------------   -----------------  -----------------  -----------------  -----------------
           C          1.225660808842    -0.563349687632    -0.664188941557    12.000000000000
           O          1.229660808842     1.773650312368    -0.156188941557    15.994914619560
           C          0.560660808842     0.608650312368    -0.329188941557    12.000000000000
           C         -0.819339191158     0.594650312368    -0.239188941557    12.000000000000
           H         -1.328339191158     1.505650312368     0.002811058443     1.007825032070
           O          0.295660808842     2.158650312368     2.862811058443    15.994914619560
           C         -1.533339191158    -0.569349687632    -0.462188941557    12.000000000000
           C         -0.861339191158    -1.739349687632    -0.782188941557    12.000000000000
           C          0.518660808842    -1.728349687632    -0.884188941557    12.000000000000
           H          1.039660808842    -2.629349687632    -1.141188941557     1.007825032070
           C          1.841660808842     2.006650312368     1.081811058443    12.000000000000
           H          2.708660808842     2.624650312368     0.895811058443     1.007825032070
           H          2.179660808842     1.091650312368     1.548811058443     1.007825032070
           C          0.983660808842     2.742650312368     2.091811058443    12.000000000000
           O          1.088660808842     4.060650312368     2.059811058443    15.994914619560
           H          0.527660808842     4.416650312368     2.743811058443     1.007825032070
          CL         -1.695339191158    -3.229349687632    -1.069188941557    34.968852682000
          CL          2.952660808842    -0.579349687632    -0.833188941557    34.968852682000
          CL         -3.258339191158    -0.513349687632    -0.330188941557    34.968852682000

  Nuclear repulsion = 1182.519718701826832

  ==> Basis Set <==

  Basis Set: file /usr/local/software/miniconda2/envs/p4env/share/psi4/basis/6-31g_d_.gbs
    Number of shells: 100
    Number of basis function: 232
    Number of Cartesian functions: 232
    Spherical Harmonics?: false
    Max angular momentum: 2

  ==> DFJKGrad: Density-Fitted SCF Gradients <==

    Gradient:                    1
    J tasked:                  Yes
    K tasked:                  Yes
    wK tasked:                  No
    OpenMP threads:              8
    Integrals threads:           8
    Memory (MB):             14305
    Schwarz Cutoff:          0E+00
    Fitting Condition:       1E-12

   => Auxiliary Basis Set <=

  Basis Set: file /usr/local/software/miniconda2/envs/p4env/share/psi4/basis/cc-pvdz-jkfit.gbs
    Number of shells: 417
    Number of basis function: 1406
    Number of Cartesian functions: 1406
    Spherical Harmonics?: false
    Max angular momentum: 3


  -Total Gradient:
     Atom            X                  Y                   Z
    ------   -----------------  -----------------  -----------------
       1       -0.000334602243    -0.000152243852     0.000110799231
       2        0.005472317033    -0.003447916746    -0.000741214065
       3        0.002368486466     0.002119889178    -0.000139404221
       4       -0.002457001198     0.000167652211    -0.000120373483
       5        0.000998206137     0.000007830867    -0.000442714699
       6        0.004355024459    -0.003855499749    -0.003895028839
       7        0.000728342663    -0.000745473243    -0.000097682518
       8        0.000043384205    -0.000061356302    -0.000099591223
       9       -0.000100567535    -0.000087928433    -0.000056061244
      10        0.000100539817    -0.000180650435     0.000000440894
      11       -0.022849906473    -0.009282922759    -0.004531669051
      12       -0.000431941901     0.001813415995     0.005076685888
      13        0.004205943737     0.000557457831     0.001132485741
      14        0.009444554967     0.012322909244     0.001174511377
      15       -0.001077396435     0.001560162496     0.001763906511
      16       -0.000202994280    -0.000689140276     0.000833667238
      17        0.000012406208    -0.000022332975     0.000029693630
      18        0.000000643549    -0.000081002650    -0.000081690812
      19       -0.000275439240     0.000057149599     0.000083239664


*** tstop() called on dakota at Thu Sep 27 12:16:12 2018
Module time:
	user time   =      50.46 seconds =       0.84 minutes
	system time =       0.99 seconds =       0.02 minutes
	total time  =         14 seconds =       0.23 minutes
Total time:
	user time   =     161.75 seconds =       2.70 minutes
	system time =       3.56 seconds =       0.06 minutes
	total time  =         43 seconds =       0.72 minutes

			-----------------------------------------
			 OPTKING 2.0: for geometry optimizations 
			  - R.A. King,  Bethel University        
			-----------------------------------------

	Internal coordinates to be generated automatically.
	Detected frag 1 with atoms:  1 2 3 4 5 6 7 8 9 10 11 12 13 14 15 16 17 18 19
	---Fragment 1 Bond Connectivity---
	 1 : 3 9 18
	 2 : 3 11
	 3 : 1 2 4
	 4 : 3 5 7
	 5 : 4
	 6 : 14
	 7 : 4 8 19
	 8 : 7 9 17
	 9 : 1 8 10
	 10 : 9
	 11 : 2 12 13 14
	 12 : 11
	 13 : 11
	 14 : 6 11 15
	 15 : 14 16
	 16 : 15
	 17 : 8
	 18 : 1
	 19 : 7

	---Fragment 1 Geometry and Gradient---
	 C           2.3161632605       -1.0645766267       -1.2551352000
	 O           2.3237221651        3.3517133459       -0.2951543245
	 C           1.0594953822        1.1501824011       -0.6220769455
	 C          -1.5483266812        1.1237262352       -0.4520015936
	 H          -2.5101972829        2.8452667423        0.0053121306
	 O           0.5587179569        4.0792579070        5.4099288707
	 C          -2.8975911401       -1.0759149835       -0.8734105212
	 C          -1.6276951788       -3.2868945589       -1.4781228837
	 C           0.9801268846       -3.2661075715       -1.6708749493
	 H           1.9646741998       -4.9687508172       -2.1565345654
	 C           3.4802345584        3.7920195348        2.0443266280
	 H           5.1186271156        4.9598702850        1.6928375673
	 H           4.1189619913        2.0629201233        2.9268287320
	 C           1.8588495364        5.1828579686        3.9529500222
	 O           2.0572707803        7.6735170118        3.8924787859
	 H           0.9971344198        8.3462595151        5.1850514608
	 CL         -3.2037267736       -6.1025864969       -2.0204742839
	 CL          5.5797202920       -1.0948122448       -1.5744989165
	 CL         -6.1573687193       -0.9700903200       -0.6239666716
	            -0.0003346022       -0.0001522439        0.0001107992
	             0.0054723170       -0.0034479167       -0.0007412141
	             0.0023684865        0.0021198892       -0.0001394042
	            -0.0024570012        0.0001676522       -0.0001203735
	             0.0009982061        0.0000078309       -0.0004427147
	             0.0043550245       -0.0038554997       -0.0038950288
	             0.0007283427       -0.0007454732       -0.0000976825
	             0.0000433842       -0.0000613563       -0.0000995912
	            -0.0001005675       -0.0000879284       -0.0000560612
	             0.0001005398       -0.0001806504        0.0000004409
	            -0.0228499065       -0.0092829228       -0.0045316691
	            -0.0004319419        0.0018134160        0.0050766859
	             0.0042059437        0.0005574578        0.0011324857
	             0.0094445550        0.0123229092        0.0011745114
	            -0.0010773964        0.0015601625        0.0017639065
	            -0.0002029943       -0.0006891403        0.0008336672
	             0.0000124062       -0.0000223330        0.0000296936
	             0.0000006435       -0.0000810027       -0.0000816908
	            -0.0002754392        0.0000571496        0.0000832397

	Previous optimization step data not found.  Starting new optimization.

	---Fragment 1 Intrafragment Coordinates---
	 - Coordinate -           - BOHR/RAD -       - ANG/DEG -
	 R(1,3)           =         2.623954	       1.388537
	 R(1,9)           =         2.608557	       1.380389
	 R(1,18)          =         3.279285	       1.735323
	 R(2,3)           =         2.559665	       1.354517
	 R(2,11)          =         2.646613	       1.400527
	 R(3,4)           =         2.613496	       1.383003
	 R(4,5)           =         2.024360	       1.071245
	 R(4,7)           =         2.614674	       1.383626
	 R(6,14)          =         2.243003	       1.186946
	 R(7,8)           =         2.620447	       1.386681
	 R(7,19)          =         3.271020	       1.730949
	 R(8,9)           =         2.615018	       1.383808
	 R(8,17)          =         3.272024	       1.731481
	 R(9,10)          =         2.025881	       1.072050
	 R(11,12)         =         2.042486	       1.080837
	 R(11,13)         =         2.043665	       1.081461
	 R(11,14)         =         2.864640	       1.515902
	 R(14,15)         =         2.499282	       1.322563
	 R(15,16)         =         1.802003	       0.953579
	 B(1,3,2)         =         2.117919	     121.347809
	 B(1,3,4)         =         2.077203	     119.014943
	 B(1,9,8)         =         2.101020	     120.379572
	 B(1,9,10)        =         2.092785	     119.907723
	 B(2,3,4)         =         2.086591	     119.552833
	 B(2,11,12)       =         1.868715	     107.069462
	 B(2,11,13)       =         1.957920	     112.180527
	 B(2,11,14)       =         2.006883	     114.985913
	 B(3,1,9)         =         2.100771	     120.365333
	 B(3,1,18)        =         2.103545	     120.524235
	 B(3,2,11)        =         2.062142	     118.152048
	 B(3,4,5)         =         2.071689	     118.699041
	 B(3,4,7)         =         2.109406	     120.860049
	 B(4,7,8)         =         2.090853	     119.797040
	 B(4,7,19)        =         2.065481	     118.343352
	 B(5,4,7)         =         2.102080	     120.440320
	 B(6,14,11)       =         2.119963	     121.464948
	 B(6,14,15)       =         2.155625	     123.508196
	 B(7,8,9)         =         2.086997	     119.576128
	 B(7,8,17)        =         2.130456	     122.066149
	 B(8,7,19)        =         2.126851	     121.859608
	 B(8,9,10)        =         2.089364	     119.711757
	 B(9,1,18)        =         2.078778	     119.105230
	 B(9,8,17)        =         2.065722	     118.357134
	 B(11,14,15)      =         2.007316	     115.010740
	 B(12,11,13)      =         1.883230	     107.901132
	 B(12,11,14)      =         1.866139	     106.921888
	 B(13,11,14)      =         1.875462	     107.456035
	 B(14,15,16)      =         1.883866	     107.937555
	 D(1,3,2,11)      =        -1.436199	     -82.288134
	 D(1,3,4,5)       =        -3.123179	    -178.944990
	 D(1,3,4,7)       =         0.013558	       0.776845
	 D(1,9,8,7)       =         0.004574	       0.262065
	 D(1,9,8,17)      =         3.141399	     179.988898
	 D(2,3,1,9)       =        -3.099560	    -177.591685
	 D(2,3,1,18)      =         0.027423	       1.571212
	 D(2,3,4,5)       =        -0.039097	      -2.240110
	 D(2,3,4,7)       =         3.097640	     177.481724
	 D(2,11,14,6)     =         1.594805	      91.375619
	 D(2,11,14,15)    =        -1.571421	     -90.035768
	 D(3,1,9,8)       =         0.007601	       0.435496
	 D(3,1,9,10)      =        -3.140189	    -179.919594
	 D(3,2,11,12)     =         2.612227	     149.669576
	 D(3,2,11,13)     =         0.549395	      31.478013
	 D(3,2,11,14)     =        -1.600636	     -91.709711
	 D(3,4,7,8)       =        -0.001562	      -0.089479
	 D(3,4,7,19)      =         3.140080	     179.913309
	 D(4,3,1,9)       =        -0.016548	      -0.948131
	 D(4,3,1,18)      =         3.110434	     178.214766
	 D(4,3,2,11)      =         1.764284	     101.086050
	 D(4,7,8,9)       =        -0.007580	      -0.434312
	 D(4,7,8,17)      =         3.138963	     179.849353
	 D(5,4,7,8)       =         3.135092	     179.627517
	 D(5,4,7,19)      =        -0.006452	      -0.369694
	 D(6,14,11,12)    =        -2.616618	    -149.921151
	 D(6,14,11,13)    =        -0.598595	     -34.296941
	 D(6,14,15,16)    =        -0.001917	      -0.109855
	 D(7,8,9,10)      =        -3.130833	    -179.383541
	 D(8,9,1,18)      =        -3.119588	    -178.739199
	 D(9,8,7,19)      =         3.133962	     179.562798
	 D(10,9,1,18)     =         0.015808	       0.905711
	 D(10,9,8,17)     =         0.005992	       0.343293
	 D(11,14,15,16)   =        -3.118311	    -178.666041
	 D(12,11,14,15)   =         0.500342	      28.667463
	 D(13,11,14,15)   =         2.518365	     144.291672
	 D(17,8,7,19)     =        -0.002680	      -0.153537
	 R(4,14)          =         6.891226	       3.646680
	 R(11,18)         =         6.433107	       3.404254

	Current energy   :     -1908.8735628053

	Generating empirical Hessian (Schlegel '84) for each fragment.
	Taking PRFO optimization step.
	Maximizing along 1 lowest eigenvalue of Hessian.

 RFO min eigenvalues
 -0.004176 -0.000000 -0.000000 -0.000000 -0.000000 -0.000000 -0.000000 -0.000000
 -0.000000 -0.000000 -0.000000 -0.000000 -0.000000 -0.000000 -0.000000 -0.000000
 -0.000000  0.000000  0.000000  0.000000  0.000000  0.000000  0.000000  0.000000
  0.000000  0.000000  0.000000  0.000000  0.000000  0.000000  0.000000  0.000000
  0.000000  0.000000  0.000000  0.000000  0.002842  0.005961  0.006237  0.012075
  0.015202  0.017354  0.019341  0.020074  0.020131  0.020180  0.020241  0.020386
  0.020478  0.020556  0.038226  0.057976  0.070511  0.081035  0.117226  0.143341
  0.159997  0.159999  0.160025  0.230609  0.234319  0.240044  0.249834  0.249962
  0.249970  0.249997  0.250000  0.251076  0.306228  0.318426  0.323532  0.324090
  0.358189  0.358934  0.369722  0.370733  0.406823  0.436024  0.444427  0.471848
  0.481881  0.483403  0.488092  0.523875  0.568778  0.612973  1.116666

 RFO max eigenvalues
 -0.000000  0.000000
	Norm of target step-size    0.25799

	Back-transformation to cartesian coordinates...
	Could not converge backtransformation.
	Using first guess instead.

	--- Internal Coordinate Step in ANG or DEG, aJ/ANG or AJ/DEG ---
	 ---------------------------------------------------------------------------
	   Coordinate                Previous        Force       Change         New 
	   ----------                --------       ------       ------       ------
	    1 R(1,3)          =      1.388537    -0.000338     0.000452     1.388988
	    2 R(1,9)          =      1.380389    -0.000760     0.000056     1.380445
	    3 R(1,18)         =      1.735323     0.000182     0.000306     1.735629
	    4 R(2,3)          =      1.354517     0.035004     0.002792     1.357308
	    5 R(2,11)         =      1.400527     0.034446     0.003674     1.404202
	    6 R(3,4)          =      1.383003     0.005651    -0.000127     1.382876
	    7 R(4,5)          =      1.071245     0.004677     0.001284     1.072529
	    8 R(4,7)          =      1.383626    -0.004477    -0.000421     1.383205
	    9 R(6,14)         =      1.186946     0.026013     0.005373     1.192319
	   10 R(7,8)          =      1.386681    -0.002195     0.000331     1.387012
	   11 R(7,19)         =      1.730949    -0.002329    -0.000305     1.730644
	   12 R(8,9)          =      1.383808    -0.000068     0.000229     1.384037
	   13 R(8,17)         =      1.731481    -0.000069     0.000246     1.731727
	   14 R(9,10)         =      1.072050    -0.001653     0.000178     1.072228
	   15 R(11,12)        =      1.080837     0.001510     0.000782     1.081619
	   16 R(11,13)        =      1.081461    -0.010973    -0.000662     1.080799
	   17 R(11,14)        =      1.515902     0.034067     0.007606     1.523509
	   18 R(14,15)        =      1.322563    -0.005796     0.001337     1.323900
	   19 R(15,16)        =      0.953579    -0.003791     0.005246     0.958825
	   20 B(1,3,2)        =    121.347809    -0.000173    -0.227726   121.120083
	   21 B(1,3,4)        =    119.014943    -0.000062    -0.041257   118.973685
	   22 B(1,9,8)        =    120.379572     0.000017     0.023885   120.403456
	   23 B(1,9,10)       =    119.907723    -0.000008    -0.011693   119.896030
	   24 B(2,3,4)        =    119.552833     0.000232     0.224267   119.777101
	   25 B(2,11,12)      =    107.069462    -0.000027    -0.063657   107.005805
	   26 B(2,11,13)      =    112.180527     0.000155    -0.948771   111.231757
	   27 B(2,11,14)      =    114.985913    -0.000917    -4.250044   110.735869
	   28 B(3,1,9)        =    120.365333     0.000013    -0.023606   120.341727
	   29 B(3,1,18)       =    120.524235    -0.000010     0.033127   120.557362
	   30 B(3,2,11)       =    118.152048     0.000359     0.380038   118.532086
	   31 B(3,4,5)        =    118.699041     0.000038     0.254033   118.953075
	   32 B(3,4,7)        =    120.860049     0.000055     0.094644   120.954694
	   33 B(4,7,8)        =    119.797040    -0.000018    -0.058940   119.738100
	   34 B(4,7,19)       =    118.343352     0.000017     0.039839   118.383191
	   35 B(5,4,7)        =    120.440320    -0.000094    -0.348149   120.092171
	   36 B(6,14,11)      =    121.464948     0.000927     2.864529   124.329477
	   37 B(6,14,15)      =    123.508196    -0.000130    -0.754094   122.754102
	   38 B(7,8,9)        =    119.576128    -0.000005     0.003545   119.579673
	   39 B(7,8,17)       =    122.066149     0.000000     0.008368   122.074517
	   40 B(8,7,19)       =    121.859608     0.000001     0.019095   121.878703
	   41 B(8,9,10)       =    119.711757    -0.000008    -0.013279   119.698478
	   42 B(9,1,18)       =    119.105230    -0.000003    -0.010730   119.094500
	   43 B(9,8,17)       =    118.357134     0.000004    -0.012545   118.344589
	   44 B(11,14,15)     =    115.010740    -0.000796    -2.226880   112.783861
	   45 B(12,11,13)     =    107.901132     0.000054     1.994212   109.895344
	   46 B(12,11,14)     =    106.921888     0.000642     4.034185   110.956073
	   47 B(13,11,14)     =    107.456035     0.000167    -0.400775   107.055260
	   48 B(14,15,16)     =    107.937555     0.000125     0.757910   108.695465
	   49 D(1,3,2,11)     =    -82.288134     0.000015    -0.035839   -82.323973
	   50 D(1,3,4,5)      =   -178.944990     0.000002    -0.127009  -179.071999
	   51 D(1,3,4,7)      =      0.776845     0.000003     0.061718     0.838563
	   52 D(1,9,8,7)      =      0.262065     0.000001    -0.015685     0.246380
	   53 D(1,9,8,17)     =    179.988898    -0.000001    -0.135961   179.852937
	   54 D(2,3,1,9)      =   -177.591685     0.000007     0.656306  -176.935379
	   55 D(2,3,1,18)     =      1.571212     0.000007     0.564014     2.135226
	   56 D(2,3,4,5)      =     -2.240110    -0.000011    -0.915827    -3.155937
	   57 D(2,3,4,7)      =    177.481724    -0.000010    -0.727100   176.754625
	   58 D(2,11,14,6)    =     91.375619    -0.000022    -4.083909    87.291710
	   59 D(2,11,14,15)   =    -90.035768    -0.000006     1.423038   -88.612729
	   60 D(3,1,9,8)      =      0.435496     0.000002     0.106562     0.542058
	   61 D(3,1,9,10)     =   -179.919594     0.000000    -0.058882  -179.978475
	   62 D(3,2,11,12)    =    149.669576    -0.000024    -1.597107   148.072469
	   63 D(3,2,11,13)    =     31.478013    -0.000055    -3.445258    28.032755
	   64 D(3,2,11,14)    =    -91.709711     0.000030     0.826257   -90.883454
	   65 D(3,4,7,8)      =     -0.089479    -0.000001     0.027529    -0.061950
	   66 D(3,4,7,19)     =    179.913309    -0.000000     0.053440   179.966750
	   67 D(4,3,1,9)      =     -0.948131    -0.000004    -0.127948    -1.076079
	   68 D(4,3,1,18)     =    178.214766    -0.000003    -0.220240   177.994526
	   69 D(4,3,2,11)     =    101.086050     0.000028     0.763548   101.849598
	   70 D(4,7,8,9)      =     -0.434312    -0.000001    -0.051048    -0.485360
	   71 D(4,7,8,17)     =    179.849353     0.000001     0.073936   179.923289
	   72 D(5,4,7,8)      =    179.627517     0.000000     0.220082   179.847599
	   73 D(5,4,7,19)     =     -0.369694     0.000001     0.245994    -0.123701
	   74 D(6,14,11,12)   =   -149.921151    -0.000054    -4.110323  -154.031474
	   75 D(6,14,11,13)   =    -34.296941     0.000052     0.177118   -34.119823
	   76 D(6,14,15,16)   =     -0.109855     0.000004     1.700201     1.590347
	   77 D(7,8,9,10)     =   -179.383541     0.000002     0.149427  -179.234113
	   78 D(8,9,1,18)     =   -178.739199     0.000002     0.197145  -178.542054
	   79 D(9,8,7,19)     =    179.562798    -0.000002    -0.077894   179.484905
	   80 D(10,9,1,18)    =      0.905711     0.000000     0.031701     0.937412
	   81 D(10,9,8,17)    =      0.343293     0.000000     0.029151     0.372444
	   82 D(11,14,15,16)  =   -178.666041    -0.000016    -3.765066  -182.431108
	   83 D(12,11,14,15)  =     28.667463    -0.000038     1.396624    30.064087
	   84 D(13,11,14,15)  =    144.291672     0.000068     5.684065   149.975737
	   85 D(17,8,7,19)    =     -0.153537     0.000000     0.047091    -0.106446
	   86 R(4,14)         =      3.646680    -0.028628    -0.070313     3.576367
	   87 R(11,18)        =      3.404254    -0.000669    -0.002519     3.401735
	 ---------------------------------------------------------------------------
	Successfully symmetrized geometry.

  ==> Convergence Check <==

  Measures of convergence in internal coordinates in au.
  Criteria marked as inactive (o), active & met (*), and active & unmet ( ).
  --------------------------------------------------------------------------------------------- ~
   Step     Total Energy     Delta E     MAX Force     RMS Force      MAX Disp      RMS Disp    ~
  --------------------------------------------------------------------------------------------- ~
    Convergence Criteria             o    1.50e-05 *    1.00e-05 *    6.00e-05 *    4.00e-05 *  ~
  --------------------------------------------------------------------------------------------- ~
      1   -1908.87356281   -1.91e+03 o    1.22e-02      2.77e-03      1.33e-01      2.77e-02    ~
  ---------------------------------------------------------------------------------------------

	Writing optimization data to binary file.
	Structure for next step:
	Cartesian Geometry (in Angstrom)
	    C     1.2317942138  -0.5521950472  -0.6652592473
	    O     1.2546502921   1.7752262831  -0.1148790255
	    C     0.5753028017   0.6136156917  -0.2921737858
	    C    -0.8033427299   0.6010328733  -0.1848256255
	    H    -1.3111001685   1.5053116857   0.0886362552
	    O     0.2122637855   2.1539933503   2.8167753137
	    C    -1.5252355850  -0.5539212223  -0.4260860305
	    C    -0.8613339067  -1.7184420866  -0.7823549575
	    C     0.5174471858  -1.7093654010  -0.9025201117
	    H     1.0315510344  -2.6053701496  -1.1898285956
	    C     1.9028385685   1.9926571202   1.1116435566
	    H     2.7814945205   2.5882223002   0.9038819322
	    H     2.1920407591   1.0587753443   1.5724622095
	    C     0.9794476124   2.7068837560   2.0905756644
	    O     1.0518059257   4.0253301615   1.9947879794
	    H     0.4230900876   4.4128695509   2.6062414018
	   CL    -1.7042483118  -3.1982837516  -1.0961077211
	   CL     2.9560434587  -0.5692891054  -0.8629426211
	   CL    -3.2479541758  -0.4946954184  -0.2716164806
			--------------------------
			 OPTKING Finished Execution 
			--------------------------

    Structure for next step:
    Molecular point group: c1
    Full point group: C1

    Geometry (in Angstrom), charge = 0, multiplicity = 1:

    C            1.232410698304    -0.559138567381    -0.667306050605
    O            1.255266776596     1.768282762856    -0.116925828808
    C            0.575919286184     0.606672171485    -0.294220589083
    C           -0.802726245431     0.594089353025    -0.186872428810
    H           -1.310483684049     1.498368165465     0.086589451919
    O            0.212880269959     2.147049830089     2.814728510466
    C           -1.524619100557    -0.560864742493    -0.428132833791
    C           -0.860717422216    -1.725385606818    -0.784401760775
    C            0.518063670222    -1.716308921185    -0.904566914993
    H            1.032167518848    -2.612313669850    -1.191875398857
    C            1.903455052940     1.985713599932     1.109596753315
    H            2.782111004923     2.581278779956     0.901835128974
    H            2.192657243574     1.051831824090     1.570415406192
    C            0.980064096869     2.699940235787     2.088528861102
    O            1.052422410182     4.018386641222     1.992741176122
    H            0.423706572039     4.405926030620     2.604194598555
    CL          -1.703631827317    -3.205227271838    -1.098154524390
    CL           2.956659943124    -0.576232625665    -0.864989424331
    CL          -3.247337691365    -0.501638938675    -0.273663283900

gradient() will perform analytic gradient computation.

*** tstart() called on dakota
*** at Thu Sep 27 12:16:12 2018


         ---------------------------------------------------------
                                   SCF
            by Justin Turney, Rob Parrish, and Andy Simmonett
                              RHF Reference
                        8 Threads,  20000 MiB Core
         ---------------------------------------------------------

  ==> Geometry <==

    Molecular point group: c1
    Full point group: C1

    Geometry (in Angstrom), charge = 0, multiplicity = 1:

       Center              X                  Y                   Z               Mass       
    ------------   -----------------  -----------------  -----------------  -----------------
           C          1.232410698304    -0.559138567381    -0.667306050605    12.000000000000
           O          1.255266776596     1.768282762856    -0.116925828808    15.994914619560
           C          0.575919286184     0.606672171485    -0.294220589083    12.000000000000
           C         -0.802726245431     0.594089353025    -0.186872428810    12.000000000000
           H         -1.310483684049     1.498368165465     0.086589451919     1.007825032070
           O          0.212880269959     2.147049830089     2.814728510466    15.994914619560
           C         -1.524619100557    -0.560864742493    -0.428132833791    12.000000000000
           C         -0.860717422216    -1.725385606818    -0.784401760775    12.000000000000
           C          0.518063670222    -1.716308921185    -0.904566914993    12.000000000000
           H          1.032167518848    -2.612313669850    -1.191875398857     1.007825032070
           C          1.903455052940     1.985713599932     1.109596753315    12.000000000000
           H          2.782111004923     2.581278779956     0.901835128974     1.007825032070
           H          2.192657243574     1.051831824090     1.570415406192     1.007825032070
           C          0.980064096869     2.699940235787     2.088528861102    12.000000000000
           O          1.052422410182     4.018386641222     1.992741176122    15.994914619560
           H          0.423706572039     4.405926030620     2.604194598555     1.007825032070
          CL         -1.703631827317    -3.205227271838    -1.098154524390    34.968852682000
          CL          2.956659943124    -0.576232625665    -0.864989424331    34.968852682000
          CL         -3.247337691365    -0.501638938675    -0.273663283900    34.968852682000

  Running in c1 symmetry.

  Rotational constants: A =      0.02152  B =      0.01033  C =      0.00740 [cm^-1]
  Rotational constants: A =    645.20934  B =    309.78738  C =    221.77236 [MHz]
  Nuclear repulsion = 1185.065918869555389

  Charge       = 0
  Multiplicity = 1
  Electrons    = 128
  Nalpha       = 64
  Nbeta        = 64

  ==> Algorithm <==

  SCF Algorithm Type is DF.
  DIIS enabled.
  MOM disabled.
  Fractional occupation disabled.
  Guess Type is READ.
  Energy threshold   = 1.00e-08
  Density threshold  = 1.00e-08
  Integral threshold = 0.00e+00

  ==> Primary Basis <==

  Basis Set: file /usr/local/software/miniconda2/envs/p4env/share/psi4/basis/6-31g_d_.gbs
    Number of shells: 100
    Number of basis function: 232
    Number of Cartesian functions: 232
    Spherical Harmonics?: false
    Max angular momentum: 2

  Reading orbitals from file 180, no projection.

  ==> Pre-Iterations <==

   -------------------------------------------------------
    Irrep   Nso     Nmo     Nalpha   Nbeta   Ndocc  Nsocc
   -------------------------------------------------------
     A        232     232       0       0       0       0
   -------------------------------------------------------
    Total     232     232      64      64      64       0
   -------------------------------------------------------

  ==> Integral Setup <==

  ==> DFJK: Density-Fitted J/K Matrices <==

    J tasked:                  Yes
    K tasked:                  Yes
    wK tasked:                  No
    OpenMP threads:              8
    Integrals threads:           8
    Memory (MB):             14305
    Algorithm:                Core
    Integral Cache:           NONE
    Schwarz Cutoff:          1E-12
    Fitting Condition:       1E-12

   => Auxiliary Basis Set <=

  Basis Set: file /usr/local/software/miniconda2/envs/p4env/share/psi4/basis/cc-pvdz-jkfit.gbs
    Number of shells: 417
    Number of basis function: 1406
    Number of Cartesian functions: 1406
    Spherical Harmonics?: false
    Max angular momentum: 3

  Minimum eigenvalue in the overlap matrix is 3.6703904062E-04.
  Using Symmetric Orthogonalization.

  SCF Guess: Orbitals guess was supplied from a previous computation.

  ==> Iterations <==

                           Total Energy        Delta E     RMS |[F,P]|

   @DF-RHF iter   0: -1908.84882274479514   -1.90885e+03   9.34958e-04 
   @DF-RHF iter   1: -1908.87388338389428   -2.50606e-02   1.48733e-04 
   @DF-RHF iter   2: -1908.87510558268514   -1.22220e-03   6.33455e-05 DIIS
   @DF-RHF iter   3: -1908.87535045619006   -2.44874e-04   3.27393e-05 DIIS
   @DF-RHF iter   4: -1908.87541496269864   -6.45065e-05   1.09964e-05 DIIS
   @DF-RHF iter   5: -1908.87542592620139   -1.09635e-05   5.59397e-06 DIIS
   @DF-RHF iter   6: -1908.87542922612147   -3.29992e-06   2.10478e-06 DIIS
   @DF-RHF iter   7: -1908.87542963825172   -4.12130e-07   8.94527e-07 DIIS
   @DF-RHF iter   8: -1908.87542971430412   -7.60524e-08   3.36969e-07 DIIS
   @DF-RHF iter   9: -1908.87542972644655   -1.21424e-08   1.23041e-07 DIIS
   @DF-RHF iter  10: -1908.87542972760411   -1.15756e-09   5.13475e-08 DIIS
   @DF-RHF iter  11: -1908.87542972777806   -1.73941e-10   1.47792e-08 DIIS
   @DF-RHF iter  12: -1908.87542972779511   -1.70530e-11   6.02352e-09 DIIS

  ==> Post-Iterations <==

    Orbital Energies (a.u.)
    -----------------------

    Doubly Occupied:                                                      

       1A   -104.849097     2A   -104.844376     3A   -104.843966  
       4A    -20.635994     5A    -20.619918     6A    -20.575027  
       7A    -11.403364     8A    -11.336863     9A    -11.333740  
      10A    -11.331333    11A    -11.327676    12A    -11.321889  
      13A    -11.281540    14A    -11.273212    15A    -10.582133  
      16A    -10.577597    17A    -10.577227    18A     -8.051576  
      19A     -8.048135    20A     -8.048077    21A     -8.047044  
      22A     -8.046676    23A     -8.043507    24A     -8.043503  
      25A     -8.043136    26A     -8.043116    27A     -1.497736  
      28A     -1.448568    29A     -1.386042    30A     -1.242080  
      31A     -1.185419    32A     -1.151824    33A     -1.112964  
      34A     -1.053629    35A     -1.019239    36A     -0.980068  
      37A     -0.881104    38A     -0.864483    39A     -0.821518  
      40A     -0.749212    41A     -0.739587    42A     -0.722402  
      43A     -0.700262    44A     -0.684342    45A     -0.674086  
      46A     -0.648618    47A     -0.635585    48A     -0.613607  
      49A     -0.607169    50A     -0.591818    51A     -0.572767  
      52A     -0.565528    53A     -0.547624    54A     -0.528914  
      55A     -0.511253    56A     -0.498221    57A     -0.496934  
      58A     -0.483601    59A     -0.473534    60A     -0.459051  
      61A     -0.457755    62A     -0.449385    63A     -0.363757  
      64A     -0.344634  

    Virtual:                                                              

      65A      0.099112    66A      0.106227    67A      0.148933  
      68A      0.158440    69A      0.204938    70A      0.214496  
      71A      0.236826    72A      0.270711    73A      0.277641  
      74A      0.288819    75A      0.304275    76A      0.322047  
      77A      0.343034    78A      0.370229    79A      0.400133  
      80A      0.426110    81A      0.435990    82A      0.447458  
      83A      0.476838    84A      0.491674    85A      0.508607  
      86A      0.529523    87A      0.539428    88A      0.570609  
      89A      0.584852    90A      0.600838    91A      0.605472  
      92A      0.618688    93A      0.628224    94A      0.637970  
      95A      0.655493    96A      0.665965    97A      0.676701  
      98A      0.686058    99A      0.710039   100A      0.719522  
     101A      0.738426   102A      0.752046   103A      0.770019  
     104A      0.793346   105A      0.809210   106A      0.812822  
     107A      0.821064   108A      0.843651   109A      0.852268  
     110A      0.881139   111A      0.888143   112A      0.907227  
     113A      0.918399   114A      0.940940   115A      0.961720  
     116A      0.968726   117A      0.999204   118A      1.007138  
     119A      1.028510   120A      1.046062   121A      1.050065  
     122A      1.066459   123A      1.079536   124A      1.096987  
     125A      1.118669   126A      1.120045   127A      1.123833  
     128A      1.130068   129A      1.133386   130A      1.137517  
     131A      1.144140   132A      1.150050   133A      1.159853  
     134A      1.189827   135A      1.195111   136A      1.210847  
     137A      1.215976   138A      1.224916   139A      1.253012  
     140A      1.267541   141A      1.278113   142A      1.299369  
     143A      1.314902   144A      1.318332   145A      1.326879  
     146A      1.336145   147A      1.370619   148A      1.416347  
     149A      1.421776   150A      1.432097   151A      1.451259  
     152A      1.466811   153A      1.483263   154A      1.553176  
     155A      1.572212   156A      1.597719   157A      1.629438  
     158A      1.639012   159A      1.663577   160A      1.678696  
     161A      1.688675   162A      1.692528   163A      1.753300  
     164A      1.785166   165A      1.796212   166A      1.818677  
     167A      1.830699   168A      1.860482   169A      1.903175  
     170A      1.969378   171A      1.975024   172A      2.020022  
     173A      2.039068   174A      2.073161   175A      2.083496  
     176A      2.105332   177A      2.128262   178A      2.135858  
     179A      2.189391   180A      2.219211   181A      2.223979  
     182A      2.241963   183A      2.267882   184A      2.312177  
     185A      2.332496   186A      2.344284   187A      2.384665  
     188A      2.412578   189A      2.421049   190A      2.437947  
     191A      2.453142   192A      2.498167   193A      2.517699  
     194A      2.577264   195A      2.588373   196A      2.593767  
     197A      2.621456   198A      2.669503   199A      2.774997  
     200A      2.832078   201A      2.851273   202A      2.866652  
     203A      2.894933   204A      2.968767   205A      3.003050  
     206A      3.027367   207A      3.072609   208A      3.082038  
     209A      3.097922   210A      3.114611   211A      3.181398  
     212A      3.210747   213A      3.229666   214A      3.342382  
     215A      3.389185   216A      3.457261   217A      3.486551  
     218A      3.711134   219A      4.269229   220A      4.419720  
     221A      4.437154   222A      4.488337   223A      4.514573  
     224A      4.596812   225A      4.612956   226A      4.664395  
     227A      4.726447   228A      4.749557   229A      4.799888  
     230A      4.872052   231A      4.920510   232A      5.147346  

    Final Occupation by Irrep:
              A 
    DOCC [    64 ]

  Energy converged.

  @DF-RHF Final Energy: -1908.87542972779511

   => Energetics <=

    Nuclear Repulsion Energy =           1185.0659188695553894
    One-Electron Energy =               -4988.0946199496866029
    Two-Electron Energy =                1894.1532713523361053
    DFT Exchange-Correlation Energy =       0.0000000000000000
    Empirical Dispersion Energy =           0.0000000000000000
    PCM Polarization Energy =               0.0000000000000000
    EFP Energy =                            0.0000000000000000
    Total Energy =                      -1908.8754297277951082

    Alert: EFP and PCM quantities not currently incorporated into SCF psivars.

Properties will be evaluated at   0.000000,   0.000000,   0.000000 Bohr

Properties computed using the SCF density matrix

  Nuclear Dipole Moment: (a.u.)
     X:     6.6378      Y:    10.4511      Z:     5.7930

  Electronic Dipole Moment: (a.u.)
     X:    -5.9483      Y:    -9.7391      Z:    -5.4871

  Dipole Moment: (a.u.)
     X:     0.6895      Y:     0.7120      Z:     0.3060     Total:     1.0373

  Dipole Moment: (Debye)
     X:     1.7525      Y:     1.8096      Z:     0.7777     Total:     2.6364


*** tstop() called on dakota at Thu Sep 27 12:16:36 2018
Module time:
	user time   =      89.59 seconds =       1.49 minutes
	system time =       1.94 seconds =       0.03 minutes
	total time  =         24 seconds =       0.40 minutes
Total time:
	user time   =     251.98 seconds =       4.20 minutes
	system time =       5.53 seconds =       0.09 minutes
	total time  =         67 seconds =       1.12 minutes

*** tstart() called on dakota
*** at Thu Sep 27 12:16:36 2018


         ------------------------------------------------------------
                                   SCF GRAD                          
                          Rob Parrish, Justin Turney,                
                       Andy Simmonett, and Alex Sokolov              
         ------------------------------------------------------------

  ==> Geometry <==

    Molecular point group: c1
    Full point group: C1

    Geometry (in Angstrom), charge = 0, multiplicity = 1:

       Center              X                  Y                   Z               Mass       
    ------------   -----------------  -----------------  -----------------  -----------------
           C          1.232410698304    -0.559138567381    -0.667306050605    12.000000000000
           O          1.255266776596     1.768282762856    -0.116925828808    15.994914619560
           C          0.575919286184     0.606672171485    -0.294220589083    12.000000000000
           C         -0.802726245431     0.594089353025    -0.186872428810    12.000000000000
           H         -1.310483684049     1.498368165465     0.086589451919     1.007825032070
           O          0.212880269959     2.147049830089     2.814728510466    15.994914619560
           C         -1.524619100557    -0.560864742493    -0.428132833791    12.000000000000
           C         -0.860717422216    -1.725385606818    -0.784401760775    12.000000000000
           C          0.518063670222    -1.716308921185    -0.904566914993    12.000000000000
           H          1.032167518848    -2.612313669850    -1.191875398857     1.007825032070
           C          1.903455052940     1.985713599932     1.109596753315    12.000000000000
           H          2.782111004923     2.581278779956     0.901835128974     1.007825032070
           H          2.192657243574     1.051831824090     1.570415406192     1.007825032070
           C          0.980064096869     2.699940235787     2.088528861102    12.000000000000
           O          1.052422410182     4.018386641222     1.992741176122    15.994914619560
           H          0.423706572039     4.405926030620     2.604194598555     1.007825032070
          CL         -1.703631827317    -3.205227271838    -1.098154524390    34.968852682000
          CL          2.956659943124    -0.576232625665    -0.864989424331    34.968852682000
          CL         -3.247337691365    -0.501638938675    -0.273663283900    34.968852682000

  Nuclear repulsion = 1185.065918869555389

  ==> Basis Set <==

  Basis Set: file /usr/local/software/miniconda2/envs/p4env/share/psi4/basis/6-31g_d_.gbs
    Number of shells: 100
    Number of basis function: 232
    Number of Cartesian functions: 232
    Spherical Harmonics?: false
    Max angular momentum: 2

  ==> DFJKGrad: Density-Fitted SCF Gradients <==

    Gradient:                    1
    J tasked:                  Yes
    K tasked:                  Yes
    wK tasked:                  No
    OpenMP threads:              8
    Integrals threads:           8
    Memory (MB):             14305
    Schwarz Cutoff:          0E+00
    Fitting Condition:       1E-12

   => Auxiliary Basis Set <=

  Basis Set: file /usr/local/software/miniconda2/envs/p4env/share/psi4/basis/cc-pvdz-jkfit.gbs
    Number of shells: 417
    Number of basis function: 1406
    Number of Cartesian functions: 1406
    Spherical Harmonics?: false
    Max angular momentum: 3


  -Total Gradient:
     Atom            X                  Y                   Z
    ------   -----------------  -----------------  -----------------
       1        0.000115216608    -0.000102177515    -0.000173794677
       2        0.004753305294    -0.001271886843     0.002278874138
       3       -0.000310947455     0.000400607815     0.000979330040
       4       -0.001302648953    -0.001720931596    -0.001002852752
       5       -0.000120906499     0.000621941775    -0.000047268786
       6       -0.010028082010    -0.002448441350     0.005340009214
       7       -0.000008066578     0.000265386499     0.000009311786
       8        0.000079079654    -0.000190945394     0.000009610405
       9       -0.000121269857     0.000134317147    -0.000016492279
      10        0.000178386174    -0.000266829719    -0.000087535752
      11       -0.006110905327     0.002661468397    -0.009470423750
      12        0.002951624624     0.000358670340    -0.000468464666
      13       -0.001133933781    -0.000070206974     0.001143693185
      14        0.014698372528     0.001515817039     0.002086910406
      15        0.000277043309    -0.002653005170    -0.004587622478
      16       -0.003836878289     0.002955007136     0.004179446713
      17       -0.000042462499    -0.000123273850    -0.000047006471
      18        0.000199852639    -0.000126534762    -0.000184772658
      19       -0.000236779601     0.000061017007     0.000059048404


*** tstop() called on dakota at Thu Sep 27 12:16:49 2018
Module time:
	user time   =      50.37 seconds =       0.84 minutes
	system time =       1.02 seconds =       0.02 minutes
	total time  =         13 seconds =       0.22 minutes
Total time:
	user time   =     302.35 seconds =       5.04 minutes
	system time =       6.55 seconds =       0.11 minutes
	total time  =         80 seconds =       1.33 minutes

			-----------------------------------------
			 OPTKING 2.0: for geometry optimizations 
			  - R.A. King,  Bethel University        
			-----------------------------------------

	Previous internal coordinate definitions found.
	---Fragment 1 Geometry and Gradient---
	 C           2.3289187030       -1.0566187627       -1.2610256825
	 O           2.3721104315        3.3415701473       -0.2209577943
	 C           1.0883297255        1.1464442566       -0.5559963360
	 C          -1.5169327635        1.1226661757       -0.3531377122
	 H          -2.4764552645        2.8315054790        0.1636303501
	 O           0.4022854093        4.0573361725        5.3190660232
	 C          -2.8811125570       -1.0598807609       -0.8090538044
	 C          -1.6265202058       -3.2605062705       -1.4823045060
	 C           0.9789984561       -3.2433538205       -1.7093837382
	 H           1.9505139339       -4.9365574092       -2.2523180884
	 C           3.5970087563        3.7524548822        2.0968339817
	 H           5.2574278706        4.8779099667        1.7042214108
	 H           4.1435216936        1.9876740854        2.9676550326
	 C           1.8520527358        5.1021476208        3.9467475681
	 O           1.9887901314        7.5936502480        3.7657350766
	 H           0.8006893819        8.3259935596        4.9212145880
	 CL         -3.2193975849       -6.0570017374       -2.0752113027
	 CL          5.5872775606       -1.0889218513       -1.6345931198
	 CL         -6.1365788977       -0.9479602117       -0.5171486592
	             0.0001152166       -0.0001021775       -0.0001737947
	             0.0047533053       -0.0012718868        0.0022788741
	            -0.0003109475        0.0004006078        0.0009793300
	            -0.0013026490       -0.0017209316       -0.0010028528
	            -0.0001209065        0.0006219418       -0.0000472688
	            -0.0100280820       -0.0024484413        0.0053400092
	            -0.0000080666        0.0002653865        0.0000093118
	             0.0000790797       -0.0001909454        0.0000096104
	            -0.0001212699        0.0001343171       -0.0000164923
	             0.0001783862       -0.0002668297       -0.0000875358
	            -0.0061109053        0.0026614684       -0.0094704237
	             0.0029516246        0.0003586703       -0.0004684647
	            -0.0011339338       -0.0000702070        0.0011436932
	             0.0146983725        0.0015158170        0.0020869104
	             0.0002770433       -0.0026530052       -0.0045876225
	            -0.0038368783        0.0029550071        0.0041794467
	            -0.0000424625       -0.0001232738       -0.0000470065
	             0.0001998526       -0.0001265348       -0.0001847727
	            -0.0002367796        0.0000610170        0.0000590484

	---Fragment 1 Intrafragment Coordinates---
	 - Coordinate -           - BOHR/RAD -       - ANG/DEG -
	 R(1,3)           =         2.624807	       1.388988
	 R(1,9)           =         2.608662	       1.380445
	 R(1,18)          =         3.279863	       1.735629
	 R(2,3)           =         2.564941	       1.357308
	 R(2,11)          =         2.653556	       1.404202
	 R(3,4)           =         2.613257	       1.382876
	 R(4,5)           =         2.026787	       1.072529
	 R(4,7)           =         2.613878	       1.383205
	 R(6,14)          =         2.253156	       1.192319
	 R(7,8)           =         2.621073	       1.387012
	 R(7,19)          =         3.270443	       1.730644
	 R(8,9)           =         2.615452	       1.384037
	 R(8,17)          =         3.272489	       1.731727
	 R(9,10)          =         2.026218	       1.072228
	 R(11,12)         =         2.043963	       1.081619
	 R(11,13)         =         2.042414	       1.080799
	 R(11,14)         =         2.879014	       1.523509
	 R(14,15)         =         2.501809	       1.323900
	 R(15,16)         =         1.811917	       0.958825
	 B(1,3,2)         =         2.113944	     121.120083
	 B(1,3,4)         =         2.076483	     118.973685
	 B(1,9,8)         =         2.101437	     120.403456
	 B(1,9,10)        =         2.092580	     119.896030
	 B(2,3,4)         =         2.090505	     119.777101
	 B(2,11,12)       =         1.867604	     107.005805
	 B(2,11,13)       =         1.941360	     111.231757
	 B(2,11,14)       =         1.932706	     110.735869
	 B(3,1,9)         =         2.100359	     120.341727
	 B(3,1,18)        =         2.104123	     120.557362
	 B(3,2,11)        =         2.068775	     118.532086
	 B(3,4,5)         =         2.076123	     118.953075
	 B(3,4,7)         =         2.111058	     120.954694
	 B(4,7,8)         =         2.089824	     119.738100
	 B(4,7,19)        =         2.066176	     118.383191
	 B(5,4,7)         =         2.096004	     120.092171
	 B(6,14,11)       =         2.169959	     124.329477
	 B(6,14,15)       =         2.142463	     122.754102
	 B(7,8,9)         =         2.087059	     119.579673
	 B(7,8,17)        =         2.130602	     122.074517
	 B(8,7,19)        =         2.127185	     121.878703
	 B(8,9,10)        =         2.089133	     119.698478
	 B(9,1,18)        =         2.078591	     119.094500
	 B(9,8,17)        =         2.065503	     118.344589
	 B(11,14,15)      =         1.968450	     112.783861
	 B(12,11,13)      =         1.918036	     109.895344
	 B(12,11,14)      =         1.936549	     110.956073
	 B(13,11,14)      =         1.868467	     107.055260
	 B(14,15,16)      =         1.897094	     108.695465
	 D(1,3,2,11)      =        -1.436824	     -82.323973
	 D(1,3,4,5)       =        -3.125396	    -179.071999
	 D(1,3,4,7)       =         0.014636	       0.838563
	 D(1,9,8,7)       =         0.004300	       0.246380
	 D(1,9,8,17)      =         3.139026	     179.852937
	 D(2,3,1,9)       =        -3.088105	    -176.935379
	 D(2,3,1,18)      =         0.037267	       2.135226
	 D(2,3,4,5)       =        -0.055081	      -3.155937
	 D(2,3,4,7)       =         3.084950	     176.754625
	 D(2,11,14,6)     =         1.523528	      87.291710
	 D(2,11,14,15)    =        -1.546584	     -88.612729
	 D(3,1,9,8)       =         0.009461	       0.542058
	 D(3,1,9,10)      =        -3.141217	    -179.978475
	 D(3,2,11,12)     =         2.584352	     148.072469
	 D(3,2,11,13)     =         0.489264	      28.032755
	 D(3,2,11,14)     =        -1.586216	     -90.883454
	 D(3,4,7,8)       =        -0.001081	      -0.061950
	 D(3,4,7,19)      =         3.141012	     179.966750
	 D(4,3,1,9)       =        -0.018781	      -1.076079
	 D(4,3,1,18)      =         3.106591	     177.994526
	 D(4,3,2,11)      =         1.777611	     101.849598
	 D(4,7,8,9)       =        -0.008471	      -0.485360
	 D(4,7,8,17)      =         3.140254	     179.923289
	 D(5,4,7,8)       =         3.138933	     179.847599
	 D(5,4,7,19)      =        -0.002159	      -0.123701
	 D(6,14,11,12)    =        -2.688356	    -154.031474
	 D(6,14,11,13)    =        -0.595503	     -34.119823
	 D(6,14,15,16)    =         0.027757	       1.590347
	 D(7,8,9,10)      =        -3.128225	    -179.234113
	 D(8,9,1,18)      =        -3.116147	    -178.542054
	 D(9,8,7,19)      =         3.132603	     179.484905
	 D(10,9,1,18)     =         0.016361	       0.937412
	 D(10,9,8,17)     =         0.006500	       0.372444
	 D(11,14,15,16)   =         3.099162	     177.568892
	 D(12,11,14,15)   =         0.524717	      30.064087
	 D(13,11,14,15)   =         2.617570	     149.975737
	 D(17,8,7,19)     =        -0.001858	      -0.106446
	 R(4,14)          =         6.758354	       3.576367
	 R(11,18)         =         6.428347	       3.401735

	Current energy   :     -1908.8754297278

	Energy change for the previous step:
		Projected    :        -0.0008884776
		Actual       :        -0.0018669225

	Performing Bofill update.
	Previous computed or guess Hessian on step 1.
	Steps to be used in Hessian update: 1
	Taking PRFO optimization step.
	Maximizing along 1 lowest eigenvalue of Hessian.

 RFO min eigenvalues
 -0.001866 -0.000000 -0.000000 -0.000000 -0.000000 -0.000000 -0.000000 -0.000000
 -0.000000 -0.000000 -0.000000 -0.000000 -0.000000 -0.000000 -0.000000 -0.000000
 -0.000000 -0.000000 -0.000000 -0.000000 -0.000000  0.000000  0.000000  0.000000
  0.000000  0.000000  0.000000  0.000000  0.000000  0.000000  0.000000  0.000000
  0.000000  0.000000  0.000000  0.000000  0.002839  0.005844  0.008789  0.014883
  0.016721  0.018607  0.019605  0.020081  0.020134  0.020184  0.020293  0.020375
  0.020515  0.020566  0.033352  0.063333  0.066908  0.082920  0.116474  0.147478
  0.159941  0.159996  0.160146  0.226815  0.231606  0.239951  0.249244  0.249812
  0.249955  0.249996  0.250000  0.255151  0.307309  0.318423  0.323532  0.324090
  0.358220  0.359812  0.369723  0.370758  0.406796  0.436148  0.444994  0.471847
  0.482009  0.483474  0.488091  0.524153  0.568933  0.613269  1.118145

 RFO max eigenvalues
 -0.000000  0.000000
	Norm of target step-size    0.31975

	Back-transformation to cartesian coordinates...
	Successfully converged to displaced geometry.
	First geometry is closer to target in internal coordinates, so am using that one.
	First geometry has RMS(Delta(q)) = 6.10e-03

	--- Internal Coordinate Step in ANG or DEG, aJ/ANG or AJ/DEG ---
	 ---------------------------------------------------------------------------
	   Coordinate                Previous        Force       Change         New 
	   ----------                --------       ------       ------       ------
	    1 R(1,3)          =      1.388988    -0.003435    -0.001407     1.387581
	    2 R(1,9)          =      1.380445    -0.001819    -0.000364     1.380081
	    3 R(1,18)         =      1.735629    -0.001557    -0.000659     1.734969
	    4 R(2,3)          =      1.357308    -0.001895    -0.002889     1.354419
	    5 R(2,11)         =      1.404202     0.034965     0.003090     1.407291
	    6 R(3,4)          =      1.382876    -0.004371    -0.001640     1.381235
	    7 R(4,5)          =      1.072529    -0.004692     0.000264     1.072794
	    8 R(4,7)          =      1.383205     0.000240     0.000212     1.383416
	    9 R(6,14)         =      1.192319    -0.089310    -0.003798     1.188521
	   10 R(7,8)          =      1.387012    -0.003297     0.000875     1.387886
	   11 R(7,19)         =      1.730644    -0.002002     0.000302     1.730945
	   12 R(8,9)          =      1.384037    -0.001902     0.000481     1.384518
	   13 R(8,17)         =      1.731727    -0.001108    -0.000139     1.731587
	   14 R(9,10)         =      1.072228    -0.002735    -0.000103     1.072125
	   15 R(11,12)        =      1.081619    -0.022123    -0.003401     1.078218
	   16 R(11,13)        =      1.080799    -0.002017     0.001688     1.082487
	   17 R(11,14)        =      1.523509    -0.023631    -0.002383     1.521125
	   18 R(14,15)        =      1.323900    -0.001118     0.005578     1.329479
	   19 R(15,16)        =      0.958825    -0.052526    -0.002881     0.955944
	   20 B(1,3,2)        =    121.120083    -0.000029     0.121792   121.241875
	   21 B(1,3,4)        =    118.973685     0.000005     0.356119   119.329804
	   22 B(1,9,8)        =    120.403456    -0.000007    -0.123771   120.279685
	   23 B(1,9,10)       =    119.896030     0.000005     0.059748   119.955778
	   24 B(2,3,4)        =    119.777101     0.000024    -0.405591   119.371509
	   25 B(2,11,12)      =    107.005805     0.000082     0.226424   107.232229
	   26 B(2,11,13)      =    111.231757     0.000069     0.037192   111.268949
	   27 B(2,11,14)      =    110.735869    -0.000324    -3.355965   107.379904
	   28 B(3,1,9)        =    120.341727     0.000008    -0.074898   120.266829
	   29 B(3,1,18)       =    120.557362    -0.000015    -0.234694   120.322668
	   30 B(3,2,11)       =    118.532086     0.000067    -1.098734   117.433352
	   31 B(3,4,5)        =    118.953075     0.000019     0.281843   119.234917
	   32 B(3,4,7)        =    120.954694    -0.000008    -0.256628   120.698066
	   33 B(4,7,8)        =    119.738100     0.000005     0.024049   119.762149
	   34 B(4,7,19)       =    118.383191     0.000005    -0.014839   118.368352
	   35 B(5,4,7)        =    120.092171    -0.000010    -0.025270   120.066901
	   36 B(6,14,11)      =    124.329477    -0.000195    -0.149907   124.179570
	   37 B(6,14,15)      =    122.754102     0.000284     1.041814   123.795915
	   38 B(7,8,9)        =    119.579673    -0.000003     0.082033   119.661706
	   39 B(7,8,17)       =    122.074517    -0.000002    -0.044199   122.030319
	   40 B(8,7,19)       =    121.878703    -0.000010    -0.009261   121.869442
	   41 B(8,9,10)       =    119.698478     0.000002     0.064384   119.762862
	   42 B(9,1,18)       =    119.094500     0.000007     0.314149   119.408649
	   43 B(9,8,17)       =    118.344589     0.000005    -0.036616   118.307973
	   44 B(11,14,15)     =    112.783861    -0.000076    -0.810152   111.973708
	   45 B(12,11,13)     =    109.895344    -0.000022     1.312812   111.208156
	   46 B(12,11,14)     =    110.956073    -0.000087     0.585833   111.541906
	   47 B(13,11,14)     =    107.055260     0.000278     1.111290   108.166550
	   48 B(14,15,16)     =    108.695465    -0.000056    -0.580594   108.114870
	   49 D(1,3,2,11)     =    -82.323973     0.000007    -2.036152   -84.360126
	   50 D(1,3,4,5)      =   -179.071999    -0.000002    -1.392058  -180.464057
	   51 D(1,3,4,7)      =      0.838563    -0.000001    -1.178791    -0.340229
	   52 D(1,9,8,7)      =      0.246380    -0.000001    -0.436648    -0.190268
	   53 D(1,9,8,17)     =    179.852937     0.000000    -0.061068   179.791869
	   54 D(2,3,1,9)      =   -176.935379    -0.000001    -0.341920  -177.277299
	   55 D(2,3,1,18)     =      2.135226     0.000000     0.089195     2.224422
	   56 D(2,3,4,5)      =     -3.155937    -0.000001    -0.014653    -3.170590
	   57 D(2,3,4,7)      =    176.754625     0.000000     0.198614   176.953238
	   58 D(2,11,14,6)    =     87.291710     0.000042     2.209144    89.500854
	   59 D(2,11,14,15)   =    -88.612729    -0.000011    -4.397513   -93.010243
	   60 D(3,1,9,8)      =      0.542058    -0.000000    -0.241365     0.300693
	   61 D(3,1,9,10)     =   -179.978475     0.000000    -0.192747  -180.171222
	   62 D(3,2,11,12)    =    148.072469     0.000011    -0.889668   147.182801
	   63 D(3,2,11,13)    =     28.032755    -0.000004    -2.664978    25.367777
	   64 D(3,2,11,14)    =    -90.883454    -0.000045    -1.939644   -92.823098
	   65 D(3,4,7,8)      =     -0.061950     0.000000     0.512127     0.450176
	   66 D(3,4,7,19)     =    179.966750     0.000000     0.397713   180.364463
	   67 D(4,3,1,9)      =     -1.076079     0.000001     1.040062    -0.036017
	   68 D(4,3,1,18)     =    177.994526     0.000002     1.471178   179.465704
	   69 D(4,3,2,11)     =    101.849598     0.000005    -3.449875    98.399723
	   70 D(4,7,8,9)      =     -0.485360     0.000001     0.302906    -0.182454
	   71 D(4,7,8,17)     =    179.923289    -0.000000    -0.087193   179.836096
	   72 D(5,4,7,8)      =    179.847599     0.000002     0.727434   180.575033
	   73 D(5,4,7,19)     =     -0.123701     0.000001     0.613020     0.489319
	   74 D(6,14,11,12)   =   -154.031474     0.000004     0.744409  -153.287064
	   75 D(6,14,11,13)   =    -34.119823     0.000026     3.438883   -30.680940
	   76 D(6,14,15,16)   =      1.590347    -0.000028    -5.842850    -4.252503
	   77 D(7,8,9,10)     =   -179.234113    -0.000001    -0.485151  -179.719264
	   78 D(8,9,1,18)     =   -178.542054    -0.000001    -0.663518  -179.205572
	   79 D(9,8,7,19)     =    179.484905     0.000001     0.421449   179.906354
	   80 D(10,9,1,18)    =      0.937412    -0.000001    -0.614900     0.322513
	   81 D(10,9,8,17)    =      0.372444     0.000000    -0.109571     0.262873
	   82 D(11,14,15,16)  =    177.568892     0.000018     0.678384   178.247276
	   83 D(12,11,14,15)  =     30.064087    -0.000048    -5.862248    24.201839
	   84 D(13,11,14,15)  =    149.975737    -0.000026    -3.167774   146.807963
	   85 D(17,8,7,19)    =     -0.106446    -0.000000     0.031350    -0.075096
	   86 R(4,14)         =      3.576367    -0.014486    -0.110779     3.465588
	   87 R(11,18)        =      3.401735    -0.000688     0.019498     3.421233
	 ---------------------------------------------------------------------------
	Successfully symmetrized geometry.

  ==> Convergence Check <==

  Measures of convergence in internal coordinates in au.
  Criteria marked as inactive (o), active & met (*), and active & unmet ( ).
  ---------------------------------------------------------------------------------------------
   Step     Total Energy     Delta E     MAX Force     RMS Force      MAX Disp      RMS Disp   
  ---------------------------------------------------------------------------------------------
    Convergence Criteria             o    1.50e-05 *    1.00e-05 *    6.00e-05 *    4.00e-05 *
  ---------------------------------------------------------------------------------------------
      2   -1908.87542973   -1.87e-03 o    1.08e-02      1.81e-03      2.09e-01      3.35e-02    ~
  ---------------------------------------------------------------------------------------------

	Writing optimization data to binary file.
	Structure for next step:
	Cartesian Geometry (in Angstrom)
	    C     1.2457795749  -0.5518232786  -0.6975274479
	    O     1.2746210864   1.7627674876  -0.1049515102
	    C     0.5959300325   0.6061359789  -0.2947772743
	    C    -0.7764535956   0.5925980400  -0.1392425627
	    H    -1.2764785174   1.4866346909   0.1794421134
	    O     0.1038987748   2.1791902232   2.7254871207
	    C    -1.5040220415  -0.5576108595  -0.3872425292
	    C    -0.8493526309  -1.7140111768  -0.7877109095
	    C     0.5268286836  -1.7047999658  -0.9391408018
	    H     1.0337204814  -2.5959456137  -1.2527840389
	    C     1.8943775694   1.9533513263   1.1440673348
	    H     2.7905001804   2.5276347672   0.9716807624
	    H     2.1208810787   1.0070962465   1.6184897131
	    C     0.9113411966   2.7043553826   2.0291972812
	    O     1.0964681689   4.0197105652   1.9736770387
	    H     0.4360987633   4.4363480951   2.5251795987
	   CL    -1.7010273699  -3.1869058508  -1.1096195596
	   CL     2.9671303499  -0.5600198687  -0.9143301980
	   CL    -3.2219732127  -0.5042771390  -0.1823732826
			--------------------------
			 OPTKING Finished Execution 
			--------------------------

    Structure for next step:
    Molecular point group: c1
    Full point group: C1

    Geometry (in Angstrom), charge = 0, multiplicity = 1:

    C            1.242351485307    -0.557889211506    -0.695702411696
    O            1.271192996760     1.756701554727    -0.103126473988
    C            0.592501942867     0.600070046012    -0.292952238148
    C           -0.779881685231     0.586532107061    -0.137417526506
    H           -1.279906607047     1.480568757959     0.181267149614
    O            0.100470685213     2.173124290305     2.727312156907
    C           -1.507450131137    -0.563676792403    -0.385417493071
    C           -0.852780720568    -1.720077109668    -0.785885873322
    C            0.523400593950    -1.710865898663    -0.937315765589
    H            1.030292391797    -2.602011546599    -1.250959002716
    C            1.890949479748     1.947285393390     1.145892370970
    H            2.787072090801     2.521568834338     0.973505798526
    H            2.117452989119     1.001030313549     1.620314749252
    C            0.907913106993     2.698289449724     2.031022317325
    O            1.093040079285     4.013644632261     1.975502074838
    H            0.432670673710     4.430282162198     2.527004634922
    CL          -1.704455459487    -3.192971783715    -1.107794523388
    CL           2.963702260250    -0.566085801619    -0.912505161855
    CL          -3.225401302293    -0.510343071853    -0.180548246464

gradient() will perform analytic gradient computation.

*** tstart() called on dakota
*** at Thu Sep 27 12:16:49 2018


         ---------------------------------------------------------
                                   SCF
            by Justin Turney, Rob Parrish, and Andy Simmonett
                              RHF Reference
                        8 Threads,  20000 MiB Core
         ---------------------------------------------------------

  ==> Geometry <==

    Molecular point group: c1
    Full point group: C1

    Geometry (in Angstrom), charge = 0, multiplicity = 1:

       Center              X                  Y                   Z               Mass       
[...]
	 R(1,9)           =         2.607668	       1.379918
	 R(1,18)          =         3.278207	       1.734752
	 R(2,3)           =         2.561350	       1.355408
	 R(2,11)          =         2.671023	       1.413445
	 R(3,4)           =         2.610981	       1.381672
	 R(4,5)           =         2.025445	       1.071819
	 R(4,7)           =         2.615227	       1.383918
	 R(6,14)          =         2.242052	       1.186443
	 R(7,8)           =         2.620093	       1.386493
	 R(7,19)          =         3.269688	       1.730244
	 R(8,9)           =         2.616109	       1.384385
	 R(8,17)          =         3.272211	       1.731579
	 R(9,10)          =         2.025450	       1.071822
	 R(11,12)         =         2.037812	       1.078364
	 R(11,13)         =         2.039680	       1.079352
	 R(11,14)         =         2.867452	       1.517390
	 R(14,15)         =         2.502880	       1.324467
	 R(15,16)         =         1.800789	       0.952937
	 B(1,3,2)         =         2.113586	     121.099575
	 B(1,3,4)         =         2.078648	     119.097779
	 B(1,9,8)         =         2.100668	     120.359388
	 B(1,9,10)        =         2.093453	     119.946015
	 B(2,3,4)         =         2.089799	     119.736670
	 B(2,11,12)       =         1.864902	     106.851035
	 B(2,11,13)       =         1.945643	     111.477145
	 B(2,11,14)       =         1.899997	     108.861803
	 B(3,1,9)         =         2.100006	     120.321501
	 B(3,1,18)        =         2.101068	     120.382354
	 B(3,2,11)        =         2.055273	     117.758469
	 B(3,4,5)         =         2.079873	     119.167957
	 B(3,4,7)         =         2.109398	     120.859581
	 B(4,7,8)         =         2.090024	     119.749534
	 B(4,7,19)        =         2.066355	     118.393431
	 B(5,4,7)         =         2.093909	     119.972157
	 B(6,14,11)       =         2.169656	     124.312150
	 B(6,14,15)       =         2.154887	     123.465923
	 B(7,8,9)         =         2.087606	     119.610986
	 B(7,8,17)        =         2.130429	     122.064565
	 B(8,7,19)        =         2.126806	     121.857032
	 B(8,9,10)        =         2.089050	     119.693743
	 B(9,1,18)        =         2.082071	     119.293856
	 B(9,8,17)        =         2.065144	     118.324049
	 B(11,14,15)      =         1.958293	     112.201920
	 B(12,11,13)      =         1.926402	     110.374705
	 B(12,11,14)      =         1.928417	     110.490173
	 B(13,11,14)      =         1.898430	     108.772051
	 B(14,15,16)      =         1.897630	     108.726197
	 D(1,3,2,11)      =        -1.476246	     -84.582680
	 D(1,3,4,5)       =        -3.134521	    -179.594852
	 D(1,3,4,7)       =         0.003560	       0.203985
	 D(1,9,8,7)       =         0.001722	       0.098678
	 D(1,9,8,17)      =         3.139380	     179.873235
	 D(2,3,1,9)       =        -3.096452	    -177.413643
	 D(2,3,1,18)      =         0.035465	       2.032010
	 D(2,3,4,5)       =        -0.043907	      -2.515659
	 D(2,3,4,7)       =         3.094175	     177.283178
	 D(2,11,14,6)     =         1.685542	      96.574471
	 D(2,11,14,15)    =        -1.428449	     -81.844118
	 D(3,1,9,8)       =         0.003950	       0.226340
	 D(3,1,9,10)      =         3.139656	     179.889050
	 D(3,2,11,12)     =         2.547805	     145.978495
	 D(3,2,11,13)     =         0.441714	      25.308373
	 D(3,2,11,14)     =        -1.652513	     -94.682019
	 D(3,4,7,8)       =         0.002052	       0.117599
	 D(3,4,7,19)      =        -3.139193	    -179.862519
	 D(4,3,1,9)       =        -0.006555	      -0.375567
	 D(4,3,1,18)      =         3.125363	     179.070086
	 D(4,3,2,11)      =         1.717368	      98.397943
	 D(4,7,8,9)       =        -0.004700	      -0.269297
	 D(4,7,8,17)      =         3.140980	     179.964879
	 D(5,4,7,8)       =         3.140106	     179.914828
	 D(5,4,7,19)      =        -0.001140	      -0.065290
	 D(6,14,11,12)    =        -2.554824	    -146.380638
	 D(6,14,11,13)    =        -0.437686	     -25.077537
	 D(6,14,15,16)    =        -0.016683	      -0.955868
	 D(7,8,9,10)      =        -3.133998	    -179.564883
	 D(8,9,1,18)      =        -3.128072	    -179.225322
	 D(9,8,7,19)      =         3.136533	     179.710111
	 D(10,9,1,18)     =         0.007634	       0.437389
	 D(10,9,8,17)     =         0.003660	       0.209674
	 D(11,14,15,16)   =         3.097581	     177.478336
	 D(12,11,14,15)   =         0.614369	      35.200773
	 D(13,11,14,15)   =         2.731508	     156.503874
	 D(17,8,7,19)     =        -0.000972	      -0.055713
	 R(4,14)          =         6.683303	       3.536652
	 R(11,18)         =         6.485191	       3.431815

	Current energy   :     -1908.8760006283

	Energy change for the previous step:
		Projected    :        -0.0000000000
		Actual       :        -0.0000000061

	Performing Bofill update.
	Previous computed or guess Hessian on step 1.
	Denominators (dg)(dq) or (dq)(dq) are very small.
	 Skipping Hessian update for step 17.
	Denominators (dg)(dq) or (dq)(dq) are very small.
	 Skipping Hessian update for step 16.
	Denominators (dg)(dq) or (dq)(dq) are very small.
	 Skipping Hessian update for step 15.
	Steps to be used in Hessian update: 14 13
	Taking PRFO optimization step.
	Maximizing along 1 lowest eigenvalue of Hessian.

 RFO min eigenvalues
 -0.000000 -0.000000 -0.000000 -0.000000 -0.000000 -0.000000 -0.000000 -0.000000
 -0.000000 -0.000000 -0.000000 -0.000000 -0.000000 -0.000000 -0.000000  0.000000
  0.000000  0.000000  0.000000  0.000000  0.000000  0.000000  0.000000  0.000000
  0.000000  0.000000  0.000000  0.000000  0.000000  0.000000  0.000000  0.000000
  0.000000  0.000000  0.000000  0.000000  0.000000  0.002371  0.003614  0.015328
  0.019087  0.019775  0.020099  0.020114  0.020219  0.020463  0.020531  0.021986
  0.031185  0.035801  0.054145  0.065153  0.069692  0.084155  0.119393  0.147286
  0.159954  0.159998  0.175505  0.230216  0.232723  0.239973  0.249922  0.249985
  0.250001  0.250521  0.254006  0.287480  0.318391  0.323533  0.324062  0.333268
  0.358390  0.362435  0.369730  0.370842  0.408467  0.436778  0.447745  0.472114
  0.482525  0.483729  0.488211  0.525185  0.573242  0.617159  1.121918

 RFO max eigenvalues
 -0.002974  0.000000
	Norm of target step-size    0.00015

	Back-transformation to cartesian coordinates...
	Successfully converged to displaced geometry.

	--- Internal Coordinate Step in ANG or DEG, aJ/ANG or AJ/DEG ---
	 ---------------------------------------------------------------------------
	   Coordinate                Previous        Force       Change         New 
	   ----------                --------       ------       ------       ------
	    1 R(1,3)          =      1.388628     0.000004     0.000001     1.388629
	    2 R(1,9)          =      1.379918    -0.000006    -0.000001     1.379917
	    3 R(1,18)         =      1.734752    -0.000001    -0.000000     1.734752
	    4 R(2,3)          =      1.355408     0.000004     0.000001     1.355409
	    5 R(2,11)         =      1.413445     0.000015     0.000002     1.413447
	    6 R(3,4)          =      1.381672     0.000003     0.000000     1.381672
	    7 R(4,5)          =      1.071819     0.000002     0.000000     1.071820
	    8 R(4,7)          =      1.383918     0.000002     0.000000     1.383919
	    9 R(6,14)         =      1.186443     0.000006     0.000001     1.186443
	   10 R(7,8)          =      1.386493    -0.000007    -0.000001     1.386492
	   11 R(7,19)         =      1.730244     0.000000     0.000000     1.730245
	   12 R(8,9)          =      1.384385     0.000000    -0.000000     1.384385
	   13 R(8,17)         =      1.731579    -0.000001    -0.000000     1.731579
	   14 R(9,10)         =      1.071822    -0.000001    -0.000000     1.071822
	   15 R(11,12)        =      1.078364    -0.000001    -0.000000     1.078364
	   16 R(11,13)        =      1.079352     0.000001     0.000000     1.079353
	   17 R(11,14)        =      1.517390    -0.000007    -0.000001     1.517389
	   18 R(14,15)        =      1.324467     0.000003    -0.000000     1.324467
	   19 R(15,16)        =      0.952937    -0.000002    -0.000000     0.952936
	   20 B(1,3,2)        =    121.099575    -0.000000    -0.000210   121.099365
	   21 B(1,3,4)        =    119.097779    -0.000000    -0.000068   119.097711
	   22 B(1,9,8)        =    120.359388     0.000000     0.000030   120.359418
	   23 B(1,9,10)       =    119.946015     0.000000     0.000044   119.946059
	   24 B(2,3,4)        =    119.736670     0.000000     0.000355   119.737025
	   25 B(2,11,12)      =    106.851035     0.000000     0.000602   106.851638
	   26 B(2,11,13)      =    111.477145     0.000000    -0.000177   111.476968
	   27 B(2,11,14)      =    108.861803    -0.000000    -0.000518   108.861285
	   28 B(3,1,9)        =    120.321501     0.000000     0.000019   120.321519
	   29 B(3,1,18)       =    120.382354    -0.000000    -0.000035   120.382319
	   30 B(3,2,11)       =    117.758469     0.000000     0.000367   117.758836
	   31 B(3,4,5)        =    119.167957     0.000000     0.000020   119.167977
	   32 B(3,4,7)        =    120.859581     0.000000     0.000027   120.859608
	   33 B(4,7,8)        =    119.749534    -0.000000    -0.000007   119.749527
	   34 B(4,7,19)       =    118.393431    -0.000000    -0.000091   118.393340
	   35 B(5,4,7)        =    119.972157    -0.000000    -0.000046   119.972110
	   36 B(6,14,11)      =    124.312150    -0.000000    -0.000304   124.311846
	   37 B(6,14,15)      =    123.465923     0.000000     0.000404   123.466326
	   38 B(7,8,9)        =    119.610986     0.000000     0.000012   119.610998
	   39 B(7,8,17)       =    122.064565     0.000000     0.000024   122.064589
	   40 B(8,7,19)       =    121.857032     0.000000     0.000098   121.857130
	   41 B(8,9,10)       =    119.693743    -0.000000    -0.000075   119.693668
	   42 B(9,1,18)       =    119.293856     0.000000     0.000008   119.293864
	   43 B(9,8,17)       =    118.324049    -0.000000    -0.000032   118.324017
	   44 B(11,14,15)     =    112.201920    -0.000000    -0.000099   112.201821
	   45 B(12,11,13)     =    110.374705    -0.000000     0.000065   110.374771
	   46 B(12,11,14)     =    110.490173    -0.000000     0.000033   110.490206
	   47 B(13,11,14)     =    108.772051     0.000000    -0.000010   108.772041
	   48 B(14,15,16)     =    108.726197    -0.000000     0.000024   108.726221
	   49 D(1,3,2,11)     =    -84.582680     0.000000     0.000113   -84.582567
	   50 D(1,3,4,5)      =   -179.594852    -0.000000    -0.000962  -179.595815
	   51 D(1,3,4,7)      =      0.203985    -0.000000    -0.000690     0.203294
	   52 D(1,9,8,7)      =      0.098678    -0.000000    -0.001127     0.097551
	   53 D(1,9,8,17)     =    179.873235     0.000000     0.000204   179.873439
	   54 D(2,3,1,9)      =   -177.413643    -0.000000    -0.000182  -177.413826
	   55 D(2,3,1,18)     =      2.032010    -0.000000    -0.001104     2.030906
	   56 D(2,3,4,5)      =     -2.515659     0.000000     0.000739    -2.514921
	   57 D(2,3,4,7)      =    177.283178     0.000000     0.001010   177.284188
	   58 D(2,11,14,6)    =     96.574471    -0.000000    -0.002525    96.571947
	   59 D(2,11,14,15)   =    -81.844118    -0.000000    -0.002572   -81.846689
	   60 D(3,1,9,8)      =      0.226340    -0.000000    -0.000657     0.225683
	   61 D(3,1,9,10)     =    179.889050    -0.000000    -0.000867   179.888182
	   62 D(3,2,11,12)    =    145.978495     0.000000    -0.002140   145.976355
	   63 D(3,2,11,13)    =     25.308373    -0.000000    -0.002501    25.305872
	   64 D(3,2,11,14)    =    -94.682019     0.000000    -0.002041   -94.684060
	   65 D(3,4,7,8)      =      0.117599    -0.000000    -0.001081     0.116518
	   66 D(3,4,7,19)     =   -179.862519     0.000000     0.000970  -179.861549
	   67 D(4,3,1,9)      =     -0.375567     0.000000     0.001560    -0.374008
	   68 D(4,3,1,18)     =    179.070086     0.000000     0.000638   179.070724
	   69 D(4,3,2,11)     =     98.397943    -0.000000    -0.001627    98.396315
	   70 D(4,7,8,9)      =     -0.269297     0.000000     0.001985    -0.267312
	   71 D(4,7,8,17)     =    179.964879     0.000000     0.000603   179.965482
	   72 D(5,4,7,8)      =    179.914828    -0.000000    -0.000807   179.914021
	   73 D(5,4,7,19)     =     -0.065290     0.000000     0.001244    -0.064046
	   74 D(6,14,11,12)   =   -146.380638     0.000000    -0.002083  -146.382721
	   75 D(6,14,11,13)   =    -25.077537     0.000000    -0.001987   -25.079524
	   76 D(6,14,15,16)   =     -0.955868     0.000000     0.001590    -0.954278
	   77 D(7,8,9,10)     =   -179.564883    -0.000000    -0.000917  -179.565800
	   78 D(8,9,1,18)     =   -179.225322     0.000000     0.000255  -179.225066
	   79 D(9,8,7,19)     =    179.710111    -0.000000    -0.000139   179.709972
	   80 D(10,9,1,18)    =      0.437389    -0.000000     0.000044     0.437433
	   81 D(10,9,8,17)    =      0.209674     0.000000     0.000414     0.210089
	   82 D(11,14,15,16)  =    177.478336     0.000000     0.001624   177.479960
	   83 D(12,11,14,15)  =     35.200773     0.000000    -0.002130    35.198643
	   84 D(13,11,14,15)  =    156.503874     0.000000    -0.002034   156.501840
	   85 D(17,8,7,19)    =     -0.055713    -0.000000    -0.001522    -0.057235
	   86 R(4,14)         =      3.536652     0.000004     0.000012     3.536664
	   87 R(11,18)        =      3.431815     0.000001     0.000006     3.431822
	 ---------------------------------------------------------------------------
	Successfully symmetrized geometry.

  ==> Convergence Check <==

  Measures of convergence in internal coordinates in au.
  Criteria marked as inactive (o), active & met (*), and active & unmet ( ).
  ---------------------------------------------------------------------------------------------
   Step     Total Energy     Delta E     MAX Force     RMS Force      MAX Disp      RMS Disp   
  ---------------------------------------------------------------------------------------------
    Convergence Criteria             o    1.50e-05 *    1.00e-05 *    6.00e-05 *    4.00e-05 *
  ---------------------------------------------------------------------------------------------
     18   -1908.87600063   -6.09e-09 o    1.83e-06 *    5.34e-07 *    4.49e-05 *    1.65e-05 *  ~
  ---------------------------------------------------------------------------------------------


  **** Optimization is complete! (in 18 steps) ****

  ==> Optimization Summary <==

  Measures of convergence in internal coordinates in au.
  --------------------------------------------------------------------------------------------------------------- ~
   Step         Total Energy             Delta E       MAX Force       RMS Force        MAX Disp        RMS Disp  ~
  --------------------------------------------------------------------------------------------------------------- ~
      1   -1908.873562805331  -1908.873562805331      0.01218392      0.00277070      0.13287219      0.02768419  ~
      2   -1908.875429727795     -0.001866922464      0.01084024      0.00180510      0.20934142      0.03352739  ~
      3   -1908.875351121990      0.000078605805      0.00542662      0.00147547      0.13095978      0.02490315  ~
      4   -1908.875897452855     -0.000546330865      0.01009838      0.00125845      0.09557534      0.02360243  ~
      5   -1908.876027105247     -0.000129652392      0.00153828      0.00029787      0.06987102      0.01874070  ~
      6   -1908.875991517760      0.000035587487      0.00302074      0.00048297      0.07900603      0.02035268  ~
      7   -1908.875979272527      0.000012245234      0.00151252      0.00030155      0.01507115      0.00360987  ~
      8   -1908.875994086221     -0.000014813695      0.00094412      0.00018225      0.00834984      0.00149061  ~
      9   -1908.875998440991     -0.000004354770      0.00031263      0.00005829      0.03967686      0.01110165  ~
     10   -1908.876002796777     -0.000004355785      0.00118309      0.00018624      0.01981979      0.00458142  ~
     11   -1908.876000418118      0.000002378659      0.00042850      0.00008103      0.02759452      0.00790787  ~
     12   -1908.876000422808     -0.000000004690      0.00047402      0.00007129      0.01426279      0.00434162  ~
     13   -1908.876000290196      0.000000132612      0.00009518      0.00002275      0.01088224      0.00268199  ~
     14   -1908.876000547451     -0.000000257256      0.00006275      0.00001403      0.00386159      0.00091091  ~
     15   -1908.876000592701     -0.000000045250      0.00001859      0.00000514      0.00072261      0.00022557  ~
     16   -1908.876000609698     -0.000000016997      0.00000855      0.00000265      0.00024201      0.00007279  ~
     17   -1908.876000622162     -0.000000012464      0.00000206      0.00000050      0.00014321      0.00003091  ~
     18   -1908.876000628253     -0.000000006091      0.00000183      0.00000053      0.00004488      0.00001653  ~
  --------------------------------------------------------------------------------------------------------------- ~

	Writing optimization data to binary file.
	Final energy is  -1908.8760006282525
	Final (previous) structure:
	Cartesian Geometry (in Angstrom)
	    C     1.2246800922  -0.5519146026  -0.7215934597
	    O     1.2748082262   1.7439156869  -0.0609569059
	    C     0.5846514904   0.5976787801  -0.2776480713
	    C    -0.7872745335   0.5824974788  -0.1145368740
	    H    -1.2832057538   1.4711644084   0.2217968174
	    O     0.2639363098   2.1753357710   2.9101906244
	    C    -1.5215009179  -0.5593819388  -0.3833364024
	    C    -0.8754412714  -1.7058570457  -0.8198744481
	    C     0.4986609969  -1.6947774491  -0.9879300165
	    H     0.9986151964  -2.5782046704  -1.3320299845
	    C     1.9105398675   1.9028190737   1.1914091307
	    H     2.8180684782   2.4573393016   1.0131738742
	    H     2.1356076849   0.9492171891   1.6441661162
	    C     0.9881476094   2.6763823140   2.1151327916
	    O     1.0567316395   3.9832729331   1.9113058694
	    H     0.4324275581   4.4158453402   2.4868175107
	   CL    -1.7345145870  -3.1673263468  -1.1726738339
	   CL     2.9427981077  -0.5627243316  -0.9610072226
	   CL    -3.2365288606  -0.5062184686  -0.1606288743
	Saving final (previous) structure.
			--------------------------
			 OPTKING Finished Execution 
			--------------------------

    Final optimized geometry and variables:
    Molecular point group: c1
    Full point group: C1

    Geometry (in Angstrom), charge = 0, multiplicity = 1:

    C            1.224680092236    -0.551914602636    -0.721593459657
    O            1.274808226208     1.743915686865    -0.060956905884
    C            0.584651490399     0.597678780140    -0.277648071288
    C           -0.787274533482     0.582497478757    -0.114536874038
    H           -1.283205753805     1.471164408355     0.221796817365
    O            0.263936309764     2.175335771007     2.910190624366
    C           -1.521500917892    -0.559381938820    -0.383336402389
    C           -0.875441271367    -1.705857045675    -0.819874448081
    C            0.498660996942    -1.694777449099    -0.987930016515
    H            0.998615196383    -2.578204670406    -1.332029984472
    C            1.910539867529     1.902819073684     1.191409130665
    H            2.818068478217     2.457339301595     1.013173874197
    H            2.135607684911     0.949217189067     1.644166116171
    C            0.988147609399     2.676382313974     2.115132791600
    O            1.056731639452     3.983272933059     1.911305869402
    H            0.432427558096     4.415845340202     2.486817510670
    CL          -1.734514587046    -3.167326346818    -1.172673833851
    CL           2.942798107675    -0.562724331639    -0.961007222578
    CL          -3.236528860592    -0.506218468587    -0.160628874344

	Cleaning optimization helper files.

*** Psi4 exiting successfully. Buy a developer a beer!
