
    -----------------------------------------------------------------------
          Psi4: An Open-Source Ab Initio Electronic Structure Package
                               Psi4 1.1a2.dev170 

                         Git: Rev {master} e4fcd91 dirty


    J. M. Turney, A. C. Simmonett, R. M. Parrish, E. G. Hohenstein,
    F. A. Evangelista, J. T. Fermann, B. J. Mintz, L. A. Burns, J. J. Wilke,
    M. L. Abrams, N. J. Russ, M. L. Leininger, C. L. Janssen, E. T. Seidl,
    W. D. Allen, H. F. Schaefer, R. A. King, E. F. Valeev, C. D. Sherrill,
    and T. D. Crawford, WIREs Comput. Mol. Sci. 2, 556-565 (2012)
    (doi: 10.1002/wcms.93)


                         Additional Contributions by
    A. E. DePrince, U. Bozkaya, A. Yu. Sokolov, D. G. A. Smith, R. Di Remigio,
    R. M. Richard, J. F. Gonthier, H. R. McAlexander, M. Saitow, and
    B. P. Pritchard
    -----------------------------------------------------------------------


    Psi4 started on: Thursday, 27 September 2018 09:13AM

    Process ID:   7714
    PSIDATADIR: /usr/local/software/miniconda2/envs/p4env/share/psi4
    Memory:     500.0 MiB
    Threads:    8
    
  ==> Input File <==

--------------------------------------------------------------------------
memory 4000 Mb

molecule conf4 {
0 1
C          1.24300       -0.55300       -0.65700
O          1.24700        1.78400       -0.14900
C          0.57800        0.61900       -0.32200
C         -0.80200        0.60500       -0.23200
H         -1.31100        1.51600        0.01000
O          0.98900        3.93900        2.15400
C         -1.51600       -0.55900       -0.45500
C         -0.84400       -1.72900       -0.77500
C          0.53600       -1.71800       -0.87700
H          1.05700       -2.61900       -1.13400
C          1.85900        2.01700        1.08900
H          2.72600        2.63500        0.90300
H          2.19700        1.10200        1.55600
C          1.00100        2.75300        2.09900
O          0.26400        1.97900        2.87700
H         -0.24600        2.54100        3.45400
Cl        -1.67800       -3.21900       -1.06200
Cl         2.97000       -0.56900       -0.82600
Cl        -3.24100       -0.50300       -0.32300
}
set globals {
  reference rhf
  opt_type ts
  g_convergence gau_tight
  basis 6-31G(d)
}
optimize('scf')
--------------------------------------------------------------------------

  Memory set to   4.000 GiB by Python script.
gradient() will perform analytic gradient computation.

*** tstart() called on dakota
*** at Thu Sep 27 09:13:32 2018


         ---------------------------------------------------------
                                   SCF
            by Justin Turney, Rob Parrish, and Andy Simmonett
                              RHF Reference
                        8 Threads,   4000 MiB Core
         ---------------------------------------------------------

  ==> Geometry <==

    Molecular point group: c1
    Full point group: C1

    Geometry (in Angstrom), charge = 0, multiplicity = 1:

       Center              X                  Y                   Z               Mass       
    ------------   -----------------  -----------------  -----------------  -----------------
           C          1.239256443942    -0.535581764743    -0.672900079475    12.000000000000
           O          1.243256443942     1.801418235257    -0.164900079475    15.994914619560
           C          0.574256443942     0.636418235257    -0.337900079475    12.000000000000
           C         -0.805743556058     0.622418235257    -0.247900079475    12.000000000000
           H         -1.314743556058     1.533418235257    -0.005900079475     1.007825032070
           O          0.985256443942     3.956418235257     2.138099920525    15.994914619560
           C         -1.519743556058    -0.541581764743    -0.470900079475    12.000000000000
           C         -0.847743556058    -1.711581764743    -0.790900079475    12.000000000000
           C          0.532256443942    -1.700581764743    -0.892900079475    12.000000000000
           H          1.053256443942    -2.601581764743    -1.149900079475     1.007825032070
           C          1.855256443942     2.034418235257     1.073099920525    12.000000000000
           H          2.722256443942     2.652418235257     0.887099920525     1.007825032070
           H          2.193256443942     1.119418235257     1.540099920525     1.007825032070
           C          0.997256443942     2.770418235257     2.083099920525    12.000000000000
           O          0.260256443942     1.996418235257     2.861099920525    15.994914619560
           H         -0.249743556058     2.558418235257     3.438099920525     1.007825032070
          CL         -1.681743556058    -3.201581764743    -1.077900079475    34.968852682000
          CL          2.966256443942    -0.551581764743    -0.841900079475    34.968852682000
          CL         -3.244743556058    -0.485581764743    -0.338900079475    34.968852682000

  Running in c1 symmetry.

  Rotational constants: A =      0.02135  B =      0.01038  C =      0.00748 [cm^-1]
  Rotational constants: A =    639.92880  B =    311.16046  C =    224.29105 [MHz]
  Nuclear repulsion = 1186.153546086786491

  Charge       = 0
  Multiplicity = 1
  Electrons    = 128
  Nalpha       = 64
  Nbeta        = 64

  ==> Algorithm <==

  SCF Algorithm Type is DF.
  DIIS enabled.
  MOM disabled.
  Fractional occupation disabled.
  Guess Type is SAD.
  Energy threshold   = 1.00e-08
  Density threshold  = 1.00e-08
  Integral threshold = 0.00e+00

  ==> Primary Basis <==

  Basis Set: file /usr/local/software/miniconda2/envs/p4env/share/psi4/basis/6-31g_d_.gbs
    Number of shells: 100
    Number of basis function: 232
    Number of Cartesian functions: 232
    Spherical Harmonics?: false
    Max angular momentum: 2

  ==> Pre-Iterations <==

   -------------------------------------------------------
    Irrep   Nso     Nmo     Nalpha   Nbeta   Ndocc  Nsocc
   -------------------------------------------------------
     A        232     232       0       0       0       0
   -------------------------------------------------------
    Total     232     232      64      64      64       0
   -------------------------------------------------------

  ==> Integral Setup <==

  ==> DFJK: Density-Fitted J/K Matrices <==

    J tasked:                  Yes
    K tasked:                  Yes
    wK tasked:                  No
    OpenMP threads:              8
    Integrals threads:           8
    Memory (MB):              2861
    Algorithm:                Core
    Integral Cache:           NONE
    Schwarz Cutoff:          1E-12
    Fitting Condition:       1E-12

   => Auxiliary Basis Set <=

  Basis Set: file /usr/local/software/miniconda2/envs/p4env/share/psi4/basis/cc-pvdz-jkfit.gbs
    Number of shells: 417
    Number of basis function: 1406
    Number of Cartesian functions: 1406
    Spherical Harmonics?: false
    Max angular momentum: 3

  Minimum eigenvalue in the overlap matrix is 3.6755999420E-04.
  Using Symmetric Orthogonalization.

  SCF Guess: Superposition of Atomic Densities via on-the-fly atomic UHF.

  ==> Iterations <==

                           Total Energy        Delta E     RMS |[F,P]|

   @DF-RHF iter   0: -1915.49991408495043   -1.91550e+03   2.93612e-02 
   @DF-RHF iter   1: -1908.44782026018038    7.05209e+00   3.47998e-03 
   @DF-RHF iter   2: -1908.75793786763870   -3.10118e-01   2.05217e-03 DIIS
   @DF-RHF iter   3: -1908.85502925069500   -9.70914e-02   5.78120e-04 DIIS
   @DF-RHF iter   4: -1908.87063852679285   -1.56093e-02   2.00030e-04 DIIS
   @DF-RHF iter   5: -1908.87268737775730   -2.04885e-03   7.05728e-05 DIIS
   @DF-RHF iter   6: -1908.87300869304818   -3.21315e-04   2.43019e-05 DIIS
   @DF-RHF iter   7: -1908.87305125094576   -4.25579e-05   6.73491e-06 DIIS
   @DF-RHF iter   8: -1908.87305457136267   -3.32042e-06   2.86143e-06 DIIS
   @DF-RHF iter   9: -1908.87305516560582   -5.94243e-07   1.36846e-06 DIIS
   @DF-RHF iter  10: -1908.87305530889626   -1.43290e-07   5.56376e-07 DIIS
   @DF-RHF iter  11: -1908.87305534195639   -3.30601e-08   2.12829e-07 DIIS
   @DF-RHF iter  12: -1908.87305534707752   -5.12114e-09   9.98029e-08 DIIS
   @DF-RHF iter  13: -1908.87305534806910   -9.91577e-10   4.07164e-08 DIIS
   @DF-RHF iter  14: -1908.87305534824736   -1.78261e-10   1.51736e-08 DIIS
   @DF-RHF iter  15: -1908.87305534826851   -2.11458e-11   5.65718e-09 DIIS

  ==> Post-Iterations <==

    Orbital Energies (a.u.)
    -----------------------

    Doubly Occupied:                                                      

       1A   -104.850608     2A   -104.847834     3A   -104.847250  
       4A    -20.640046     5A    -20.622022     6A    -20.572924  
       7A    -11.401045     8A    -11.339359     9A    -11.337368  
      10A    -11.334321    11A    -11.330114    12A    -11.319191  
      13A    -11.284557    14A    -11.276590    15A    -10.583639  
      16A    -10.581097    17A    -10.580470    18A     -8.053083  
      19A     -8.050542    20A     -8.049917    21A     -8.049628  
      22A     -8.049574    23A     -8.047008    24A     -8.046987  
      25A     -8.046377    26A     -8.046373    27A     -1.501899  
      28A     -1.451909    29A     -1.389948    30A     -1.245241  
      31A     -1.187904    32A     -1.155078    33A     -1.115564  
      34A     -1.055292    35A     -1.022264    36A     -0.983928  
      37A     -0.885146    38A     -0.870818    39A     -0.819412  
      40A     -0.746923    41A     -0.742609    42A     -0.724579  
      43A     -0.707970    44A     -0.688463    45A     -0.677868  
      46A     -0.651562    47A     -0.637884    48A     -0.616772  
      49A     -0.610063    50A     -0.594573    51A     -0.576239  
      52A     -0.563956    53A     -0.548485    54A     -0.531061  
      55A     -0.511558    56A     -0.501709    57A     -0.498481  
      58A     -0.486286    59A     -0.475867    60A     -0.461382  
      61A     -0.458310    62A     -0.451177    63A     -0.367315  
      64A     -0.347591  

    Virtual:                                                              

      65A      0.095645    66A      0.103498    67A      0.147035  
      68A      0.156452    69A      0.202614    70A      0.212654  
      71A      0.233930    72A      0.270093    73A      0.278326  
      74A      0.289126    75A      0.300918    76A      0.321024  
      77A      0.347016    78A      0.370743    79A      0.404771  
      80A      0.426412    81A      0.432192    82A      0.453559  
      83A      0.472630    84A      0.483538    85A      0.509358  
      86A      0.525445    87A      0.541140    88A      0.567851  
      89A      0.583250    90A      0.597359    91A      0.603349  
      92A      0.615214    93A      0.626115    94A      0.638405  
      95A      0.651716    96A      0.662825    97A      0.671743  
      98A      0.680840    99A      0.703543   100A      0.712100  
     101A      0.734165   102A      0.753390   103A      0.778249  
     104A      0.791637   105A      0.804189   106A      0.815359  
     107A      0.827491   108A      0.841682   109A      0.851361  
     110A      0.870252   111A      0.885209   112A      0.891012  
     113A      0.928454   114A      0.955793   115A      0.961686  
     116A      0.967316   117A      0.992119   118A      1.003893  
     119A      1.028355   120A      1.042526   121A      1.046420  
     122A      1.067388   123A      1.074785   124A      1.098674  
     125A      1.111105   126A      1.117208   127A      1.119087  
     128A      1.126750   129A      1.128750   130A      1.130693  
     131A      1.140666   132A      1.141996   133A      1.172491  
     134A      1.183667   135A      1.187620   136A      1.209458  
     137A      1.221651   138A      1.223721   139A      1.234873  
     140A      1.264756   141A      1.273915   142A      1.295563  
     143A      1.315465   144A      1.327200   145A      1.334179  
     146A      1.349632   147A      1.363882   148A      1.407493  
     149A      1.416159   150A      1.431101   151A      1.449033  
     152A      1.459589   153A      1.471697   154A      1.531819  
     155A      1.551636   156A      1.601054   157A      1.626914  
     158A      1.629791   159A      1.671193   160A      1.674144  
     161A      1.685769   162A      1.740457   163A      1.749850  
     164A      1.781875   165A      1.792729   166A      1.804032  
     167A      1.824063   168A      1.865846   169A      1.903657  
     170A      1.936954   171A      1.986013   172A      2.017616  
     173A      2.032775   174A      2.070121   175A      2.074693  
     176A      2.101162   177A      2.128885   178A      2.138268  
     179A      2.182704   180A      2.194624   181A      2.221611  
     182A      2.240360   183A      2.263167   184A      2.305241  
     185A      2.335275   186A      2.347793   187A      2.381590  
     188A      2.409430   189A      2.415294   190A      2.432465  
     191A      2.448385   192A      2.497178   193A      2.524683  
     194A      2.577729   195A      2.588468   196A      2.593607  
     197A      2.630671   198A      2.679840   199A      2.752057  
     200A      2.829327   201A      2.863541   202A      2.882236  
     203A      2.905373   204A      2.977517   205A      3.005313  
     206A      3.021002   207A      3.068241   208A      3.074241  
     209A      3.101939   210A      3.114324   211A      3.186997  
     212A      3.193949   213A      3.243152   214A      3.346087  
     215A      3.384757   216A      3.466076   217A      3.490248  
     218A      3.708950   219A      4.251600   220A      4.423937  
     221A      4.451316   222A      4.481361   223A      4.513776  
     224A      4.570066   225A      4.611328   226A      4.669244  
     227A      4.725148   228A      4.747113   229A      4.797993  
     230A      4.870871   231A      4.936695   232A      5.146251  

    Final Occupation by Irrep:
              A 
    DOCC [    64 ]

  Energy converged.

  @DF-RHF Final Energy: -1908.87305534826851

   => Energetics <=

    Nuclear Repulsion Energy =           1186.1535460867864913
    One-Electron Energy =               -4989.9511882015713127
    Two-Electron Energy =                1894.9245867665165406
    DFT Exchange-Correlation Energy =       0.0000000000000000
    Empirical Dispersion Energy =           0.0000000000000000
    PCM Polarization Energy =               0.0000000000000000
    EFP Energy =                            0.0000000000000000
    Total Energy =                      -1908.8730553482685082

    Alert: EFP and PCM quantities not currently incorporated into SCF psivars.

Properties will be evaluated at   0.000000,   0.000000,   0.000000 Bohr

Properties computed using the SCF density matrix

  Nuclear Dipole Moment: (a.u.)
     X:     5.9353      Y:     8.8506      Z:     6.5059

  Electronic Dipole Moment: (a.u.)
     X:    -5.6926      Y:    -9.1779      Z:    -5.8048

  Dipole Moment: (a.u.)
     X:     0.2427      Y:    -0.3273      Z:     0.7011     Total:     0.8109

  Dipole Moment: (Debye)
     X:     0.6169      Y:    -0.8319      Z:     1.7821     Total:     2.0612


*** tstop() called on dakota at Thu Sep 27 09:14:01 2018
Module time:
	user time   =     111.11 seconds =       1.85 minutes
	system time =       2.40 seconds =       0.04 minutes
	total time  =         29 seconds =       0.48 minutes
Total time:
	user time   =     111.11 seconds =       1.85 minutes
	system time =       2.40 seconds =       0.04 minutes
	total time  =         29 seconds =       0.48 minutes

*** tstart() called on dakota
*** at Thu Sep 27 09:14:01 2018


         ------------------------------------------------------------
                                   SCF GRAD                          
                          Rob Parrish, Justin Turney,                
                       Andy Simmonett, and Alex Sokolov              
         ------------------------------------------------------------

  ==> Geometry <==

    Molecular point group: c1
    Full point group: C1

    Geometry (in Angstrom), charge = 0, multiplicity = 1:

       Center              X                  Y                   Z               Mass       
    ------------   -----------------  -----------------  -----------------  -----------------
           C          1.239256443942    -0.535581764743    -0.672900079475    12.000000000000
           O          1.243256443942     1.801418235257    -0.164900079475    15.994914619560
           C          0.574256443942     0.636418235257    -0.337900079475    12.000000000000
           C         -0.805743556058     0.622418235257    -0.247900079475    12.000000000000
           H         -1.314743556058     1.533418235257    -0.005900079475     1.007825032070
           O          0.985256443942     3.956418235257     2.138099920525    15.994914619560
           C         -1.519743556058    -0.541581764743    -0.470900079475    12.000000000000
           C         -0.847743556058    -1.711581764743    -0.790900079475    12.000000000000
           C          0.532256443942    -1.700581764743    -0.892900079475    12.000000000000
           H          1.053256443942    -2.601581764743    -1.149900079475     1.007825032070
           C          1.855256443942     2.034418235257     1.073099920525    12.000000000000
           H          2.722256443942     2.652418235257     0.887099920525     1.007825032070
           H          2.193256443942     1.119418235257     1.540099920525     1.007825032070
           C          0.997256443942     2.770418235257     2.083099920525    12.000000000000
           O          0.260256443942     1.996418235257     2.861099920525    15.994914619560
           H         -0.249743556058     2.558418235257     3.438099920525     1.007825032070
          CL         -1.681743556058    -3.201581764743    -1.077900079475    34.968852682000
          CL          2.966256443942    -0.551581764743    -0.841900079475    34.968852682000
          CL         -3.244743556058    -0.485581764743    -0.338900079475    34.968852682000

  Nuclear repulsion = 1186.153546086786491

  ==> Basis Set <==

  Basis Set: file /usr/local/software/miniconda2/envs/p4env/share/psi4/basis/6-31g_d_.gbs
    Number of shells: 100
    Number of basis function: 232
    Number of Cartesian functions: 232
    Spherical Harmonics?: false
    Max angular momentum: 2

  ==> DFJKGrad: Density-Fitted SCF Gradients <==

    Gradient:                    1
    J tasked:                  Yes
    K tasked:                  Yes
    wK tasked:                  No
    OpenMP threads:              8
    Integrals threads:           8
    Memory (MB):              2861
    Schwarz Cutoff:          0E+00
    Fitting Condition:       1E-12

   => Auxiliary Basis Set <=

  Basis Set: file /usr/local/software/miniconda2/envs/p4env/share/psi4/basis/cc-pvdz-jkfit.gbs
    Number of shells: 417
    Number of basis function: 1406
    Number of Cartesian functions: 1406
    Spherical Harmonics?: false
    Max angular momentum: 3


  -Total Gradient:
     Atom            X                  Y                   Z
    ------   -----------------  -----------------  -----------------
       1       -0.000700487123     0.000087211387     0.000169183201
       2        0.006382110368    -0.001887356868    -0.001630854342
       3        0.001668264247     0.001573037199     0.000357909848
       4       -0.002450891868     0.000379185175    -0.000274400716
       5        0.001039982053    -0.000320063459     0.000023717829
       6        0.002205018319     0.001165595695    -0.006765050767
       7        0.000594942239    -0.000597910265    -0.000077404429
       8        0.000219416254     0.000033323662    -0.000045816902
       9       -0.000137612981    -0.000176691489    -0.000086651812
      10        0.000104477703    -0.000177305170     0.000028649777
      11       -0.017729142882     0.008826343928    -0.013316689757
      12        0.003904786331    -0.000793390971     0.001532847196
      13        0.000185341115     0.003905677886     0.004522851182
      14        0.004685128028    -0.015627635161     0.016255284504
      15       -0.000475913790     0.002912098205    -0.000063724322
      16        0.000314174788     0.000752921254    -0.000582328166
      17        0.000025103014    -0.000053965232     0.000002357432
      18        0.000289139100    -0.000040020343    -0.000039122080
      19       -0.000123835018     0.000038944691    -0.000010757710


*** tstop() called on dakota at Thu Sep 27 09:14:14 2018
Module time:
	user time   =      52.16 seconds =       0.87 minutes
	system time =       0.93 seconds =       0.02 minutes
	total time  =         13 seconds =       0.22 minutes
Total time:
	user time   =     163.28 seconds =       2.72 minutes
	system time =       3.33 seconds =       0.06 minutes
	total time  =         42 seconds =       0.70 minutes

			-----------------------------------------
			 OPTKING 2.0: for geometry optimizations 
			  - R.A. King,  Bethel University        
			-----------------------------------------

	Internal coordinates to be generated automatically.
	Detected frag 1 with atoms:  1 2 3 4 5 6 7 8 9 10 11 12 13 14 15 16 17 18 19
	---Fragment 1 Bond Connectivity---
	 1 : 3 9 18
	 2 : 3 11
	 3 : 1 2 4
	 4 : 3 5 7
	 5 : 4
	 6 : 14
	 7 : 4 8 19
	 8 : 7 9 17
	 9 : 1 8 10
	 10 : 9
	 11 : 2 12 13 14
	 12 : 11
	 13 : 11
	 14 : 6 11 15
	 15 : 14 16
	 16 : 15
	 17 : 8
	 18 : 1
	 19 : 7

	---Fragment 1 Geometry and Gradient---
	 C           2.3418552875       -1.0121028571       -1.2715968650
	 O           2.3494141920        3.4041871154       -0.3116159895
	 C           1.0851874091        1.2026561706       -0.6385386105
	 C          -1.5226346543        1.1762000048       -0.4684632585
	 H          -2.4845052559        2.8977405118       -0.0111495344
	 O           1.8618648497        7.4765469318        4.0404232945
	 C          -2.8718991132       -1.0234412139       -0.8898721862
	 C          -1.6020031519       -3.2344207894       -1.4945845487
	 C           1.0058189115       -3.2136338019       -1.6873366142
	 H           1.9903662267       -4.9162770477       -2.1729962304
	 C           3.5059265853        3.8444933044        2.0278649630
	 H           5.1443191425        5.0123440545        1.6763759023
	 H           4.1446540182        2.1153938928        2.9103670671
	 C           1.8845415633        5.2353317382        3.9364883572
	 O           0.4918134034        3.7726837113        5.4066952886
	 H          -0.4719469244        4.8347097980        6.4970672673
	 CL         -3.1780347467       -6.0501127274       -2.0369359488
	 CL          5.6054123190       -1.0423384753       -1.5909605815
	 CL         -6.1316766924       -0.9176165505       -0.6404283366
	            -0.0007004871        0.0000872114        0.0001691832
	             0.0063821104       -0.0018873569       -0.0016308543
	             0.0016682642        0.0015730372        0.0003579098
	            -0.0024508919        0.0003791852       -0.0002744007
	             0.0010399821       -0.0003200635        0.0000237178
	             0.0022050183        0.0011655957       -0.0067650508
	             0.0005949422       -0.0005979103       -0.0000774044
	             0.0002194163        0.0000333237       -0.0000458169
	            -0.0001376130       -0.0001766915       -0.0000866518
	             0.0001044777       -0.0001773052        0.0000286498
	            -0.0177291429        0.0088263439       -0.0133166898
	             0.0039047863       -0.0007933910        0.0015328472
	             0.0001853411        0.0039056779        0.0045228512
	             0.0046851280       -0.0156276352        0.0162552845
	            -0.0004759138        0.0029120982       -0.0000637243
	             0.0003141748        0.0007529213       -0.0005823282
	             0.0000251030       -0.0000539652        0.0000023574
	             0.0002891391       -0.0000400203       -0.0000391221
	            -0.0001238350        0.0000389447       -0.0000107577

	Previous optimization step data not found.  Starting new optimization.

	---Fragment 1 Intrafragment Coordinates---
	 - Coordinate -           - BOHR/RAD -       - ANG/DEG -
	 R(1,3)           =         2.623954	       1.388537
	 R(1,9)           =         2.608557	       1.380389
	 R(1,18)          =         3.279285	       1.735323
	 R(2,3)           =         2.559665	       1.354517
	 R(2,11)          =         2.646613	       1.400527
	 R(3,4)           =         2.613496	       1.383003
	 R(4,5)           =         2.024360	       1.071245
	 R(4,7)           =         2.614674	       1.383626
	 R(6,14)          =         2.243738	       1.187335
	 R(7,8)           =         2.620447	       1.386681
	 R(7,19)          =         3.271020	       1.730949
	 R(8,9)           =         2.615018	       1.383808
	 R(8,17)          =         3.272024	       1.731481
	 R(9,10)          =         2.025881	       1.072050
	 R(11,12)         =         2.042486	       1.080837
	 R(11,13)         =         2.043665	       1.081461
	 R(11,14)         =         2.864640	       1.515902
	 R(14,15)         =         2.498107	       1.321941
	 R(15,16)         =         1.801567	       0.953348
	 B(1,3,2)         =         2.117919	     121.347809
	 B(1,3,4)         =         2.077203	     119.014943
	 B(1,9,8)         =         2.101020	     120.379572
	 B(1,9,10)        =         2.092785	     119.907723
	 B(2,3,4)         =         2.086591	     119.552833
	 B(2,11,12)       =         1.868715	     107.069462
	 B(2,11,13)       =         1.957920	     112.180527
	 B(2,11,14)       =         2.006883	     114.985913
	 B(3,1,9)         =         2.100771	     120.365333
	 B(3,1,18)        =         2.103545	     120.524235
	 B(3,2,11)        =         2.062142	     118.152048
	 B(3,4,5)         =         2.071689	     118.699041
	 B(3,4,7)         =         2.109406	     120.860049
	 B(4,7,8)         =         2.090853	     119.797040
	 B(4,7,19)        =         2.065481	     118.343352
	 B(5,4,7)         =         2.102080	     120.440320
	 B(6,14,11)       =         2.119471	     121.436740
	 B(6,14,15)       =         2.155494	     123.500725
	 B(7,8,9)         =         2.086997	     119.576128
	 B(7,8,17)        =         2.130456	     122.066149
	 B(8,7,19)        =         2.126851	     121.859608
	 B(8,9,10)        =         2.089364	     119.711757
	 B(9,1,18)        =         2.078778	     119.105230
	 B(9,8,17)        =         2.065722	     118.357134
	 B(11,14,15)      =         2.007989	     115.049314
	 B(12,11,13)      =         1.883230	     107.901132
	 B(12,11,14)      =         1.866139	     106.921888
	 B(13,11,14)      =         1.875462	     107.456035
	 B(14,15,16)      =         1.885242	     108.016396
	 D(1,3,2,11)      =        -1.436199	     -82.288134
	 D(1,3,4,5)       =        -3.123179	    -178.944990
	 D(1,3,4,7)       =         0.013558	       0.776845
	 D(1,9,8,7)       =         0.004574	       0.262065
	 D(1,9,8,17)      =         3.141399	     179.988898
	 D(2,3,1,9)       =        -3.099560	    -177.591685
	 D(2,3,1,18)      =         0.027423	       1.571212
	 D(2,3,4,5)       =        -0.039097	      -2.240110
	 D(2,3,4,7)       =         3.097640	     177.481724
	 D(2,11,14,6)     =        -1.548044	     -88.696401
	 D(2,11,14,15)    =         1.571236	      90.025184
	 D(3,1,9,8)       =         0.007601	       0.435496
	 D(3,1,9,10)      =        -3.140189	    -179.919594
	 D(3,2,11,12)     =         2.612227	     149.669576
	 D(3,2,11,13)     =         0.549395	      31.478013
	 D(3,2,11,14)     =        -1.600636	     -91.709711
	 D(3,4,7,8)       =        -0.001562	      -0.089479
	 D(3,4,7,19)      =         3.140080	     179.913309
	 D(4,3,1,9)       =        -0.016548	      -0.948131
	 D(4,3,1,18)      =         3.110434	     178.214766
	 D(4,3,2,11)      =         1.764284	     101.086050
	 D(4,7,8,9)       =        -0.007580	      -0.434312
	 D(4,7,8,17)      =         3.138963	     179.849353
	 D(5,4,7,8)       =         3.135092	     179.627517
	 D(5,4,7,19)      =        -0.006452	      -0.369694
	 D(6,14,11,12)    =         0.523718	      30.006829
	 D(6,14,11,13)    =         2.541741	     145.631038
	 D(6,14,15,16)    =         0.000102	       0.005849
	 D(7,8,9,10)      =        -3.130833	    -179.383541
	 D(8,9,1,18)      =        -3.119588	    -178.739199
	 D(9,8,7,19)      =         3.133962	     179.562798
	 D(10,9,1,18)     =         0.015808	       0.905711
	 D(10,9,8,17)     =         0.005992	       0.343293
	 D(11,14,15,16)   =        -3.118661	    -178.686085
	 D(12,11,14,15)   =        -2.640187	    -151.271585
	 D(13,11,14,15)   =        -0.622164	     -35.647376
	 D(17,8,7,19)     =        -0.002680	      -0.153537
	 R(3,15)          =         6.595604	       3.490243
	 R(4,14)          =         6.891226	       3.646680
	 R(11,18)         =         6.433107	       3.404254

	Current energy   :     -1908.8730553483

	Generating empirical Hessian (Schlegel '84) for each fragment.
	Taking PRFO optimization step.
	Maximizing along 1 lowest eigenvalue of Hessian.

 RFO min eigenvalues
 -0.004456 -0.000000 -0.000000 -0.000000 -0.000000 -0.000000 -0.000000 -0.000000
 -0.000000 -0.000000 -0.000000 -0.000000 -0.000000 -0.000000 -0.000000 -0.000000
 -0.000000 -0.000000 -0.000000 -0.000000 -0.000000 -0.000000 -0.000000  0.000000
  0.000000  0.000000  0.000000  0.000000  0.000000  0.000000  0.000000  0.000000
  0.000000  0.000000  0.000000  0.000000  0.000000  0.003713  0.006520  0.007621
  0.012020  0.015274  0.017338  0.019333  0.020074  0.020131  0.020180  0.020240
  0.020382  0.020477  0.020556  0.027043  0.055868  0.070771  0.080174  0.116482
  0.117289  0.144096  0.159997  0.159999  0.160027  0.231619  0.234420  0.240200
  0.249876  0.249964  0.249997  0.250000  0.250582  0.302572  0.318218  0.323532
  0.324089  0.358188  0.358950  0.369722  0.370733  0.399167  0.436002  0.441363
  0.471840  0.478787  0.482966  0.488071  0.521359  0.569291  0.607181  1.114533

 RFO max eigenvalues
 -0.000000  0.000000
	Norm of target step-size    0.36907

	Back-transformation to cartesian coordinates...
	Successfully converged to displaced geometry.
	First geometry is closer to target in internal coordinates, so am using that one.
	First geometry has RMS(Delta(q)) = 6.49e-03

	--- Internal Coordinate Step in ANG or DEG, aJ/ANG or AJ/DEG ---
	 ---------------------------------------------------------------------------
	   Coordinate                Previous        Force       Change         New 
	   ----------                --------       ------       ------       ------
	    1 R(1,3)          =      1.388537    -0.009240    -0.000042     1.388494
	    2 R(1,9)          =      1.380389    -0.001112     0.000041     1.380430
	    3 R(1,18)         =      1.735323    -0.005274    -0.000510     1.734813
	    4 R(2,3)          =      1.354517     0.016526     0.001856     1.356373
	    5 R(2,11)         =      1.400527     0.034457     0.003431     1.403958
	    6 R(3,4)          =      1.383003    -0.008724    -0.000727     1.382275
	    7 R(4,5)          =      1.071245     0.006269     0.001132     1.072377
	    8 R(4,7)          =      1.383626    -0.002727    -0.000428     1.383198
	    9 R(6,14)         =      1.187335    -0.006827     0.006611     1.193946
	   10 R(7,8)          =      1.386681     0.000885    -0.000011     1.386670
	   11 R(7,19)         =      1.730949    -0.001020    -0.000190     1.730759
	   12 R(8,9)          =      1.383808     0.003656     0.000391     1.384199
	   13 R(8,17)         =      1.731481    -0.000280     0.000037     1.731518
	   14 R(9,10)         =      1.072050    -0.001589    -0.000167     1.071883
	   15 R(11,12)        =      1.080837    -0.019895    -0.003355     1.077482
	   16 R(11,13)        =      1.081461     0.010657     0.002163     1.083624
	   17 R(11,14)        =      1.515902     0.052248     0.010514     1.526417
	   18 R(14,15)        =      1.321941     0.031020     0.002470     1.324411
	   19 R(15,16)        =      0.953348     0.000632     0.001068     0.954416
	   20 B(1,3,2)        =    121.347809    -0.000069     0.007823   121.355632
	   21 B(1,3,4)        =    119.014943     0.000055     0.020146   119.035089
	   22 B(1,9,8)        =    120.379572    -0.000012     0.044239   120.423811
	   23 B(1,9,10)       =    119.907723     0.000007    -0.018391   119.889332
	   24 B(2,3,4)        =    119.552833     0.000014    -0.042923   119.509911
	   25 B(2,11,12)      =    107.069462     0.000126    -0.169390   106.900071
	   26 B(2,11,13)      =    112.180527    -0.000073    -1.087078   111.093449
	   27 B(2,11,14)      =    114.985913    -0.000844    -3.993779   110.992134
	   28 B(3,1,9)        =    120.365333    -0.000019    -0.077098   120.288236
	   29 B(3,1,18)       =    120.524235    -0.000092     0.000236   120.524471
	   30 B(3,2,11)       =    118.152048     0.000477     0.695403   118.847451
	   31 B(3,4,5)        =    118.699041     0.000057     0.224103   118.923145
	   32 B(3,4,7)        =    120.860049     0.000003     0.084495   120.944544
	   33 B(4,7,8)        =    119.797040    -0.000024    -0.067997   119.729043
	   34 B(4,7,19)       =    118.343352     0.000015     0.043284   118.386637
	   35 B(5,4,7)        =    120.440320    -0.000060    -0.309739   120.130581
	   36 B(6,14,11)      =    121.436740     0.000788     2.088622   123.525362
	   37 B(6,14,15)      =    123.500725    -0.000334    -0.813971   122.686754
	   38 B(7,8,9)        =    119.576128    -0.000003    -0.004852   119.571277
	   39 B(7,8,17)       =    122.066149    -0.000004    -0.010801   122.055348
	   40 B(8,7,19)       =    121.859608     0.000008     0.024712   121.884319
	   41 B(8,9,10)       =    119.711757     0.000006    -0.026369   119.685389
	   42 B(9,1,18)       =    119.105230     0.000111     0.076733   119.181963
	   43 B(9,8,17)       =    118.357134     0.000007     0.015194   118.372328
	   44 B(11,14,15)     =    115.049314    -0.000450    -2.114387   112.934927
	   45 B(12,11,13)     =    107.901132     0.000066     1.940235   109.841367
	   46 B(12,11,14)     =    106.921888     0.000030    -0.008881   106.913006
	   47 B(13,11,14)     =    107.456035     0.000732     3.473070   110.929105
	   48 B(14,15,16)     =    108.016396     0.000135     0.626563   108.642958
	   49 D(1,3,2,11)     =    -82.288134     0.000009     0.285757   -82.002378
	   50 D(1,3,4,5)      =   -178.944990     0.000000     0.260184  -178.684806
	   51 D(1,3,4,7)      =      0.776845    -0.000002     0.060371     0.837216
	   52 D(1,9,8,7)      =      0.262065    -0.000001     0.041570     0.303635
	   53 D(1,9,8,17)     =    179.988898    -0.000000    -0.049823   179.939075
	   54 D(2,3,1,9)      =   -177.591685    -0.000000     0.225746  -177.365939
	   55 D(2,3,1,18)     =      1.571212     0.000003     0.216130     1.787342
	   56 D(2,3,4,5)      =     -2.240110     0.000002    -0.019153    -2.259263
	   57 D(2,3,4,7)      =    177.481724    -0.000001    -0.218965   177.262759
	   58 D(2,11,14,6)    =    -88.696401    -0.000007    -9.205815   -97.902217
	   59 D(2,11,14,15)   =     90.025184     0.000043     2.412985    92.438170
	   60 D(3,1,9,8)      =      0.435496    -0.000001     0.010520     0.446016
	   61 D(3,1,9,10)     =   -179.919594    -0.000000    -0.076506  -179.996099
	   62 D(3,2,11,12)    =    149.669576     0.000019     0.014374   149.683950
	   63 D(3,2,11,13)    =     31.478013    -0.000008    -1.622835    29.855178
	   64 D(3,2,11,14)    =    -91.709711    -0.000069    -2.359174   -94.068885
	   65 D(3,4,7,8)      =     -0.089479     0.000001    -0.008009    -0.097489
	   66 D(3,4,7,19)     =    179.913309     0.000001     0.002741   179.916050
	   67 D(4,3,1,9)      =     -0.948131     0.000002    -0.060654    -1.008785
	   68 D(4,3,1,18)     =    178.214766     0.000005    -0.070270   178.144497
	   69 D(4,3,2,11)     =    101.086050     0.000007     0.571403   101.657453
	   70 D(4,7,8,9)      =     -0.434312     0.000000    -0.042905    -0.477217
	   71 D(4,7,8,17)     =    179.849353     0.000000     0.051902   179.901255
	   72 D(5,4,7,8)      =    179.627517    -0.000001    -0.208723   179.418794
	   73 D(5,4,7,19)     =     -0.369694    -0.000002    -0.197973    -0.567667
	   74 D(6,14,11,12)   =     30.006829    -0.000083   -11.669855    18.336974
	   75 D(6,14,11,13)   =    145.631038     0.000020    -7.551005   138.080034
	   76 D(6,14,15,16)   =      0.005849     0.000025     5.333813     5.339662
	   77 D(7,8,9,10)     =   -179.383541    -0.000001     0.128391  -179.255150
	   78 D(8,9,1,18)     =   -178.739199    -0.000004     0.020622  -178.718577
	   79 D(9,8,7,19)     =    179.562798     0.000001    -0.054043   179.508756
	   80 D(10,9,1,18)    =      0.905711    -0.000003    -0.066404     0.839307
	   81 D(10,9,8,17)    =      0.343293    -0.000000     0.036998     0.380291
	   82 D(11,14,15,16)  =   -178.686085    -0.000030    -6.215357  -184.901442
	   83 D(12,11,14,15)  =   -151.271585    -0.000033    -0.051055  -151.322640
	   84 D(13,11,14,15)  =    -35.647376     0.000070     4.067796   -31.579580
	   85 D(17,8,7,19)    =     -0.153537     0.000000     0.040764    -0.112773
	   86 R(3,15)         =      3.490243    -0.030301    -0.033390     3.456854
	   87 R(4,14)         =      3.646680    -0.001047    -0.029050     3.617630
	   88 R(11,18)        =      3.404254     0.007422     0.002443     3.406696
	 ---------------------------------------------------------------------------
	Successfully symmetrized geometry.

  ==> Convergence Check <==

  Measures of convergence in internal coordinates in au.
  Criteria marked as inactive (o), active & met (*), and active & unmet ( ).
  --------------------------------------------------------------------------------------------- ~
   Step     Total Energy     Delta E     MAX Force     RMS Force      MAX Disp      RMS Disp    ~
  --------------------------------------------------------------------------------------------- ~
    Convergence Criteria             o    1.50e-05 *    1.00e-05 *    6.00e-05 *    4.00e-05 *  ~
  --------------------------------------------------------------------------------------------- ~
      1   -1908.87305535   -1.91e+03 o    1.11e-02      2.62e-03      2.04e-01      3.93e-02    ~
  ---------------------------------------------------------------------------------------------

	Writing optimization data to binary file.
	Structure for next step:
	Cartesian Geometry (in Angstrom)
	    C     1.2392584049  -0.5412351850  -0.6740576183
	    O     1.2409758218   1.7916784629  -0.1400753288
	    C     0.5732853566   0.6251051298  -0.3218545394
	    C    -0.8057525745   0.6082532789  -0.2288203903
	    H    -1.3197408093   1.5152593217   0.0224740700
	    O     1.0330220720   3.9921673490   2.1862425608
	    C    -1.5203585363  -0.5524561133  -0.4640389840
	    C    -0.8480372440  -1.7177093401  -0.8002267024
	    C     0.5320073493  -1.7037172577  -0.9064760846
	    H     1.0526332019  -2.6004801737  -1.1779509520
	    C     1.8724164112   2.0259068568   1.0918008127
	    H     2.7280426980   2.6494517798   0.8916423799
	    H     2.1930309361   1.0970171158   1.5485406139
	    C     0.9616916383   2.8102867316   2.0326920328
	    O     0.2363516588   2.0293742909   2.8189002291
	    H    -0.2495886789   2.5784287341   3.4298919823
	   CL    -1.6817044176  -3.2044502379  -1.1047834308
	   CL     2.9652019872  -0.5518762914  -0.8489291599
	   CL    -3.2448628406  -0.4990579822  -0.3270730010
			--------------------------
			 OPTKING Finished Execution 
			--------------------------

    Structure for next step:
    Molecular point group: c1
    Full point group: C1

    Geometry (in Angstrom), charge = 0, multiplicity = 1:

    C            1.239025644518    -0.541628052420    -0.672323267687
    O            1.240743061372     1.791285595491    -0.138340978160
    C            0.573052596198     0.624712262454    -0.320120188729
    C           -0.805985334870     0.607860411476    -0.227086039657
    H           -1.319973569721     1.514866454330     0.024208420636
    O            1.032789311580     3.991774481564     2.187976911462
    C           -1.520591296715    -0.552848980720    -0.462304633347
    C           -0.848270004367    -1.718102207481    -0.798492351777
    C            0.531774588867    -1.704110125131    -0.904741733944
    H            1.052400441538    -2.600873041058    -1.176216601388
    C            1.872183650757     2.025513989359     1.093535163317
    H            2.727809937570     2.649058912417     0.893376730568
    H            2.192798175667     1.096624248454     1.550274964501
    C            0.961458877940     2.809893864163     2.034426383442
    O            0.236118898361     2.028981423531     2.820634579736
    H           -0.249821439336     2.578035866683     3.431626332984
    CL          -1.681937178001    -3.204843105339    -1.103049080121
    CL           2.964969226834    -0.552269158779    -0.847194809231
    CL          -3.245095601056    -0.499450849604    -0.325338650304

gradient() will perform analytic gradient computation.

*** tstart() called on dakota
*** at Thu Sep 27 09:14:14 2018


         ---------------------------------------------------------
                                   SCF
            by Justin Turney, Rob Parrish, and Andy Simmonett
                              RHF Reference
                        8 Threads,   4000 MiB Core
         ---------------------------------------------------------

  ==> Geometry <==

    Molecular point group: c1
    Full point group: C1

    Geometry (in Angstrom), charge = 0, multiplicity = 1:

       Center              X                  Y                   Z               Mass       
    ------------   -----------------  -----------------  -----------------  -----------------
           C          1.239025644518    -0.541628052420    -0.672323267687    12.000000000000
           O          1.240743061372     1.791285595491    -0.138340978160    15.994914619560
           C          0.573052596198     0.624712262454    -0.320120188729    12.000000000000
           C         -0.805985334870     0.607860411476    -0.227086039657    12.000000000000
           H         -1.319973569721     1.514866454330     0.024208420636     1.007825032070
           O          1.032789311580     3.991774481564     2.187976911462    15.994914619560
           C         -1.520591296715    -0.552848980720    -0.462304633347    12.000000000000
           C         -0.848270004367    -1.718102207481    -0.798492351777    12.000000000000
           C          0.531774588867    -1.704110125131    -0.904741733944    12.000000000000
           H          1.052400441538    -2.600873041058    -1.176216601388     1.007825032070
           C          1.872183650757     2.025513989359     1.093535163317    12.000000000000
           H          2.727809937570     2.649058912417     0.893376730568     1.007825032070
           H          2.192798175667     1.096624248454     1.550274964501     1.007825032070
           C          0.961458877940     2.809893864163     2.034426383442    12.000000000000
           O          0.236118898361     2.028981423531     2.820634579736    15.994914619560
           H         -0.249821439336     2.578035866683     3.431626332984     1.007825032070
          CL         -1.681937178001    -3.204843105339    -1.103049080121    34.968852682000
          CL          2.964969226834    -0.552269158779    -0.847194809231    34.968852682000
          CL         -3.245095601056    -0.499450849604    -0.325338650304    34.968852682000

  Running in c1 symmetry.

  Rotational constants: A =      0.02145  B =      0.01033  C =      0.00743 [cm^-1]
  Rotational constants: A =    642.96701  B =    309.60287  C =    222.65324 [MHz]
  Nuclear repulsion = 1185.270493500665907

  Charge       = 0
  Multiplicity = 1
  Electrons    = 128
  Nalpha       = 64
  Nbeta        = 64

  ==> Algorithm <==

  SCF Algorithm Type is DF.
  DIIS enabled.
  MOM disabled.
  Fractional occupation disabled.
  Guess Type is READ.
  Energy threshold   = 1.00e-08
  Density threshold  = 1.00e-08
  Integral threshold = 0.00e+00

  ==> Primary Basis <==

  Basis Set: file /usr/local/software/miniconda2/envs/p4env/share/psi4/basis/6-31g_d_.gbs
    Number of shells: 100
    Number of basis function: 232
    Number of Cartesian functions: 232
    Spherical Harmonics?: false
    Max angular momentum: 2

  Reading orbitals from file 180, no projection.

  ==> Pre-Iterations <==

   -------------------------------------------------------
    Irrep   Nso     Nmo     Nalpha   Nbeta   Ndocc  Nsocc
   -------------------------------------------------------
     A        232     232       0       0       0       0
   -------------------------------------------------------
    Total     232     232      64      64      64       0
   -------------------------------------------------------

  ==> Integral Setup <==

  ==> DFJK: Density-Fitted J/K Matrices <==

    J tasked:                  Yes
    K tasked:                  Yes
    wK tasked:                  No
    OpenMP threads:              8
    Integrals threads:           8
    Memory (MB):              2861
    Algorithm:                Core
    Integral Cache:           NONE
    Schwarz Cutoff:          1E-12
    Fitting Condition:       1E-12

   => Auxiliary Basis Set <=

  Basis Set: file /usr/local/software/miniconda2/envs/p4env/share/psi4/basis/cc-pvdz-jkfit.gbs
    Number of shells: 417
    Number of basis function: 1406
    Number of Cartesian functions: 1406
    Spherical Harmonics?: false
    Max angular momentum: 3

  Minimum eigenvalue in the overlap matrix is 3.6723226973E-04.
  Using Symmetric Orthogonalization.

  SCF Guess: Orbitals guess was supplied from a previous computation.

  ==> Iterations <==

                           Total Energy        Delta E     RMS |[F,P]|

   @DF-RHF iter   0: -1908.84021120472516   -1.90884e+03   9.87836e-04 
   @DF-RHF iter   1: -1908.87178981070929   -3.15786e-02   1.49940e-04 
   @DF-RHF iter   2: -1908.87274177194968   -9.51961e-04   5.89658e-05 DIIS
   @DF-RHF iter   3: -1908.87288118649781   -1.39415e-04   2.74877e-05 DIIS
   @DF-RHF iter   4: -1908.87291732635754   -3.61399e-05   8.86366e-06 DIIS
   @DF-RHF iter   5: -1908.87292115149785   -3.82514e-06   3.74083e-06 DIIS
   @DF-RHF iter   6: -1908.87292237892689   -1.22743e-06   1.12012e-06 DIIS
   @DF-RHF iter   7: -1908.87292245333947   -7.44126e-08   4.34152e-07 DIIS
   @DF-RHF iter   8: -1908.87292246386369   -1.05242e-08   1.32770e-07 DIIS
   @DF-RHF iter   9: -1908.87292246557763   -1.71394e-09   6.53294e-08 DIIS
   @DF-RHF iter  10: -1908.87292246600282   -4.25189e-10   3.04433e-08 DIIS
   @DF-RHF iter  11: -1908.87292246611423   -1.11413e-10   1.09917e-08 DIIS
   @DF-RHF iter  12: -1908.87292246612515   -1.09139e-11   4.39044e-09 DIIS

  ==> Post-Iterations <==

    Orbital Energies (a.u.)
    -----------------------

    Doubly Occupied:                                                      

       1A   -104.851180     2A   -104.848012     3A   -104.847274  
       4A    -20.638034     5A    -20.619230     6A    -20.573944  
       7A    -11.403038     8A    -11.339539     9A    -11.337368  
      10A    -11.334328    11A    -11.330170    12A    -11.321975  
      13A    -11.284682    14A    -11.276593    15A    -10.584217  
      16A    -10.581275    17A    -10.580494    18A     -8.053660  
      19A     -8.050720    20A     -8.050211    21A     -8.050150  
      22A     -8.049940    23A     -8.047185    24A     -8.047165  
      25A     -8.046401    26A     -8.046396    27A     -1.498681  
      28A     -1.449457    29A     -1.385407    30A     -1.245388  
      31A     -1.188324    32A     -1.155172    33A     -1.115966  
      34A     -1.055110    35A     -1.021517    36A     -0.982615  
      37A     -0.884695    38A     -0.870350    39A     -0.818978  
      40A     -0.747903    41A     -0.739136    42A     -0.723700  
      43A     -0.707380    44A     -0.686253    45A     -0.677470  
      46A     -0.651662    47A     -0.636067    48A     -0.616429  
      49A     -0.610328    50A     -0.595388    51A     -0.576441  
      52A     -0.563609    53A     -0.549231    54A     -0.531299  
      55A     -0.511001    56A     -0.501608    57A     -0.496486  
      58A     -0.486398    59A     -0.476260    60A     -0.461518  
      61A     -0.458679    62A     -0.451648    63A     -0.367272  
      64A     -0.347490  

    Virtual:                                                              

      65A      0.095591    66A      0.103774    67A      0.147014  
      68A      0.152292    69A      0.202424    70A      0.215860  
      71A      0.233689    72A      0.268515    73A      0.278545  
      74A      0.288934    75A      0.299525    76A      0.320712  
      77A      0.342266    78A      0.365427    79A      0.400993  
      80A      0.426184    81A      0.429180    82A      0.451095  
      83A      0.469793    84A      0.481797    85A      0.512388  
      86A      0.526089    87A      0.541973    88A      0.566312  
      89A      0.582433    90A      0.597293    91A      0.602292  
      92A      0.614867    93A      0.625877    94A      0.636041  
      95A      0.651811    96A      0.662972    97A      0.669394  
      98A      0.680856    99A      0.703714   100A      0.712190  
     101A      0.733984   102A      0.755156   103A      0.780115  
     104A      0.788911   105A      0.806174   106A      0.818084  
     107A      0.832713   108A      0.840796   109A      0.851946  
     110A      0.867706   111A      0.882793   112A      0.890554  
     113A      0.930388   114A      0.953067   115A      0.960858  
     116A      0.967533   117A      0.992519   118A      1.003255  
     119A      1.025947   120A      1.041969   121A      1.045573  
     122A      1.068121   123A      1.079123   124A      1.099662  
     125A      1.111679   126A      1.116807   127A      1.118460  
     128A      1.125829   129A      1.128030   130A      1.129610  
     131A      1.140096   132A      1.140757   133A      1.169064  
     134A      1.183279   135A      1.185967   136A      1.208121  
     137A      1.221238   138A      1.223170   139A      1.235446  
     140A      1.268513   141A      1.276003   142A      1.295617  
     143A      1.315577   144A      1.327086   145A      1.341980  
     146A      1.347178   147A      1.365483   148A      1.406313  
     149A      1.415739   150A      1.430920   151A      1.449808  
     152A      1.457306   153A      1.477482   154A      1.521990  
     155A      1.549098   156A      1.602686   157A      1.617219  
     158A      1.627838   159A      1.669039   160A      1.674140  
     161A      1.685470   162A      1.741714   163A      1.750589  
     164A      1.782248   165A      1.793678   166A      1.810079  
     167A      1.824242   168A      1.862886   169A      1.908848  
     170A      1.951493   171A      1.975933   172A      2.016348  
     173A      2.047604   174A      2.073626   175A      2.076669  
     176A      2.100679   177A      2.130347   178A      2.153194  
     179A      2.163162   180A      2.189290   181A      2.221581  
     182A      2.235582   183A      2.262799   184A      2.307504  
     185A      2.319179   186A      2.342525   187A      2.381804  
     188A      2.410129   189A      2.415864   190A      2.436092  
     191A      2.444794   192A      2.518784   193A      2.532306  
     194A      2.579110   195A      2.590670   196A      2.607797  
     197A      2.620385   198A      2.651533   199A      2.739405  
     200A      2.820256   201A      2.856968   202A      2.880937  
     203A      2.904478   204A      2.968005   205A      3.009698  
     206A      3.018771   207A      3.065882   208A      3.071802  
     209A      3.102068   210A      3.115791   211A      3.180830  
     212A      3.191378   213A      3.231378   214A      3.343610  
     215A      3.384781   216A      3.449742   217A      3.485209  
     218A      3.709096   219A      4.248332   220A      4.423541  
     221A      4.448642   222A      4.475421   223A      4.508689  
     224A      4.569654   225A      4.615427   226A      4.673293  
     227A      4.727591   228A      4.748973   229A      4.797516  
     230A      4.870454   231A      4.933755   232A      5.145317  

    Final Occupation by Irrep:
              A 
    DOCC [    64 ]

  Energy converged.

  @DF-RHF Final Energy: -1908.87292246612515

   => Energetics <=

    Nuclear Repulsion Energy =           1185.2704935006659070
    One-Electron Energy =               -4988.2158343458258969
    Two-Electron Energy =                1894.0724183790348434
    DFT Exchange-Correlation Energy =       0.0000000000000000
    Empirical Dispersion Energy =           0.0000000000000000
    PCM Polarization Energy =               0.0000000000000000
    EFP Energy =                            0.0000000000000000
    Total Energy =                      -1908.8729224661251465

    Alert: EFP and PCM quantities not currently incorporated into SCF psivars.

Properties will be evaluated at   0.000000,   0.000000,   0.000000 Bohr

Properties computed using the SCF density matrix

  Nuclear Dipole Moment: (a.u.)
     X:     5.9361      Y:     8.8443      Z:     6.5345

  Electronic Dipole Moment: (a.u.)
     X:    -5.7122      Y:    -9.1954      Z:    -5.8848

  Dipole Moment: (a.u.)
     X:     0.2239      Y:    -0.3510      Z:     0.6496     Total:     0.7716

  Dipole Moment: (Debye)
     X:     0.5690      Y:    -0.8923      Z:     1.6512     Total:     1.9612


*** tstop() called on dakota at Thu Sep 27 09:14:38 2018
Module time:
	user time   =      89.32 seconds =       1.49 minutes
	system time =       1.83 seconds =       0.03 minutes
	total time  =         24 seconds =       0.40 minutes
Total time:
	user time   =     253.16 seconds =       4.22 minutes
	system time =       5.19 seconds =       0.09 minutes
	total time  =         66 seconds =       1.10 minutes

*** tstart() called on dakota
*** at Thu Sep 27 09:14:38 2018


         ------------------------------------------------------------
                                   SCF GRAD                          
                          Rob Parrish, Justin Turney,                
                       Andy Simmonett, and Alex Sokolov              
         ------------------------------------------------------------

  ==> Geometry <==

    Molecular point group: c1
    Full point group: C1

    Geometry (in Angstrom), charge = 0, multiplicity = 1:

       Center              X                  Y                   Z               Mass       
    ------------   -----------------  -----------------  -----------------  -----------------
           C          1.239025644518    -0.541628052420    -0.672323267687    12.000000000000
           O          1.240743061372     1.791285595491    -0.138340978160    15.994914619560
           C          0.573052596198     0.624712262454    -0.320120188729    12.000000000000
           C         -0.805985334870     0.607860411476    -0.227086039657    12.000000000000
           H         -1.319973569721     1.514866454330     0.024208420636     1.007825032070
           O          1.032789311580     3.991774481564     2.187976911462    15.994914619560
           C         -1.520591296715    -0.552848980720    -0.462304633347    12.000000000000
           C         -0.848270004367    -1.718102207481    -0.798492351777    12.000000000000
           C          0.531774588867    -1.704110125131    -0.904741733944    12.000000000000
           H          1.052400441538    -2.600873041058    -1.176216601388     1.007825032070
           C          1.872183650757     2.025513989359     1.093535163317    12.000000000000
           H          2.727809937570     2.649058912417     0.893376730568     1.007825032070
           H          2.192798175667     1.096624248454     1.550274964501     1.007825032070
           C          0.961458877940     2.809893864163     2.034426383442    12.000000000000
           O          0.236118898361     2.028981423531     2.820634579736    15.994914619560
           H         -0.249821439336     2.578035866683     3.431626332984     1.007825032070
          CL         -1.681937178001    -3.204843105339    -1.103049080121    34.968852682000
          CL          2.964969226834    -0.552269158779    -0.847194809231    34.968852682000
          CL         -3.245095601056    -0.499450849604    -0.325338650304    34.968852682000

  Nuclear repulsion = 1185.270493500665907

  ==> Basis Set <==

  Basis Set: file /usr/local/software/miniconda2/envs/p4env/share/psi4/basis/6-31g_d_.gbs
    Number of shells: 100
    Number of basis function: 232
    Number of Cartesian functions: 232
    Spherical Harmonics?: false
    Max angular momentum: 2

  ==> DFJKGrad: Density-Fitted SCF Gradients <==

    Gradient:                    1
    J tasked:                  Yes
    K tasked:                  Yes
    wK tasked:                  No
    OpenMP threads:              8
    Integrals threads:           8
    Memory (MB):              2861
    Schwarz Cutoff:          0E+00
    Fitting Condition:       1E-12

   => Auxiliary Basis Set <=

  Basis Set: file /usr/local/software/miniconda2/envs/p4env/share/psi4/basis/cc-pvdz-jkfit.gbs
    Number of shells: 417
    Number of basis function: 1406
    Number of Cartesian functions: 1406
    Spherical Harmonics?: false
    Max angular momentum: 3


  -Total Gradient:
     Atom            X                  Y                   Z
    ------   -----------------  -----------------  -----------------
       1        0.000067230833     0.000298106032    -0.000084484778
       2        0.004375082943     0.002343495039     0.005979574379
       3       -0.001129913906    -0.001110824737    -0.000269787080
       4       -0.000695283926    -0.000789945467    -0.000411361522
       5        0.000083133645     0.000290813775    -0.000020471543
       6        0.008216890682     0.014789042290     0.009250828178
       7        0.000209643020     0.000046249354     0.000038362426
       8       -0.000002606004     0.000066561172     0.000069653576
       9        0.000005087509    -0.000038095357    -0.000066107589
      10        0.000046482311    -0.000012395733     0.000001894461
      11        0.003116421931    -0.001710957220    -0.000287247375
      12        0.000240917746    -0.000051767840     0.000701759523
      13        0.002031600204    -0.002682621189    -0.001355234747
      14       -0.024665541520    -0.013516570582    -0.019498119773
      15        0.008576095590     0.001494941835     0.004962256230
      16       -0.000367120375     0.000623790290     0.001087555008
      17       -0.000038104758    -0.000026279016    -0.000020434512
      18        0.000057054415    -0.000037748980    -0.000083235206
      19       -0.000127070258     0.000024206371     0.000004600444


*** tstop() called on dakota at Thu Sep 27 09:14:51 2018
Module time:
	user time   =      50.93 seconds =       0.85 minutes
	system time =       1.03 seconds =       0.02 minutes
	total time  =         13 seconds =       0.22 minutes
Total time:
	user time   =     304.09 seconds =       5.07 minutes
	system time =       6.22 seconds =       0.10 minutes
	total time  =         79 seconds =       1.32 minutes

			-----------------------------------------
			 OPTKING 2.0: for geometry optimizations 
			  - R.A. King,  Bethel University        
			-----------------------------------------

	Previous internal coordinate definitions found.
	---Fragment 1 Geometry and Gradient---
	 C           2.3414191398       -1.0235286850       -1.2705068487
	 O           2.3446645873        3.3850392013       -0.2614265617
	 C           1.0829124666        1.1805350879       -0.6049394863
	 C          -1.5230915500        1.1486897047       -0.4291304236
	 H          -2.4943885494        2.8626827266        0.0457472851
	 O           1.9516889519        7.5433605544        4.1346771477
	 C          -2.8735011108       -1.0447331664       -0.8736291470
	 C          -1.6029979950       -3.2467426404       -1.5089318641
	 C           1.0049083374       -3.2203014368       -1.7097140981
	 H           1.9887486166       -4.9149377540       -2.2227272496
	 C           3.5379143704        3.8276667182        2.0664819753
	 H           5.1548137246        5.0059958543        1.6882373543
	 H           4.1437880167        2.0723195003        2.9295951136
	 C           1.8168939673        5.3099298657        3.8445087022
	 O           0.4462000527        3.8342192192        5.3302268766
	 H          -0.4720941025        4.8717817488        6.4848339597
	 CL         -3.1784006391       -6.0562757680       -2.0844606726
	 CL          5.6029798312       -1.0436374617       -1.6009661706
	 CL         -6.1323419610       -0.9438253226       -0.6148009495
	             0.0000672308        0.0002981060       -0.0000844848
	             0.0043750829        0.0023434950        0.0059795744
	            -0.0011299139       -0.0011108247       -0.0002697871
	            -0.0006952839       -0.0007899455       -0.0004113615
	             0.0000831336        0.0002908138       -0.0000204715
	             0.0082168907        0.0147890423        0.0092508282
	             0.0002096430        0.0000462494        0.0000383624
	            -0.0000026060        0.0000665612        0.0000696536
	             0.0000050875       -0.0000380954       -0.0000661076
	             0.0000464823       -0.0000123957        0.0000018945
	             0.0031164219       -0.0017109572       -0.0002872474
	             0.0002409177       -0.0000517678        0.0007017595
	             0.0020316002       -0.0026826212       -0.0013552347
	            -0.0246655415       -0.0135165706       -0.0194981198
	             0.0085760956        0.0014949418        0.0049622562
	            -0.0003671204        0.0006237903        0.0010875550
	            -0.0000381048       -0.0000262790       -0.0000204345
	             0.0000570544       -0.0000377490       -0.0000832352
	            -0.0001270703        0.0000242064        0.0000046004

	---Fragment 1 Intrafragment Coordinates---
	 - Coordinate -           - BOHR/RAD -       - ANG/DEG -
	 R(1,3)           =         2.623874	       1.388494
	 R(1,9)           =         2.608635	       1.380430
	 R(1,18)          =         3.278321	       1.734813
	 R(2,3)           =         2.563173	       1.356373
	 R(2,11)          =         2.653097	       1.403958
	 R(3,4)           =         2.612122	       1.382275
	 R(4,5)           =         2.026499	       1.072377
	 R(4,7)           =         2.613865	       1.383198
	 R(6,14)          =         2.256231	       1.193946
	 R(7,8)           =         2.620426	       1.386670
	 R(7,19)          =         3.270660	       1.730759
	 R(8,9)           =         2.615758	       1.384199
	 R(8,17)          =         3.272095	       1.731518
	 R(9,10)          =         2.025566	       1.071883
	 R(11,12)         =         2.036146	       1.077482
	 R(11,13)         =         2.047753	       1.083624
	 R(11,14)         =         2.884509	       1.526417
	 R(14,15)         =         2.502775	       1.324411
	 R(15,16)         =         1.803585	       0.954416
	 B(1,3,2)         =         2.118055	     121.355632
	 B(1,3,4)         =         2.077554	     119.035089
	 B(1,9,8)         =         2.101792	     120.423811
	 B(1,9,10)        =         2.092464	     119.889332
	 B(2,3,4)         =         2.085841	     119.509911
	 B(2,11,12)       =         1.865758	     106.900071
	 B(2,11,13)       =         1.938946	     111.093449
	 B(2,11,14)       =         1.937178	     110.992134
	 B(3,1,9)         =         2.099426	     120.288236
	 B(3,1,18)        =         2.103549	     120.524471
	 B(3,2,11)        =         2.074279	     118.847451
	 B(3,4,5)         =         2.075600	     118.923145
	 B(3,4,7)         =         2.110881	     120.944544
	 B(4,7,8)         =         2.089666	     119.729043
	 B(4,7,19)        =         2.066237	     118.386637
	 B(5,4,7)         =         2.096674	     120.130581
	 B(6,14,11)       =         2.155924	     123.525362
	 B(6,14,15)       =         2.141288	     122.686754
	 B(7,8,9)         =         2.086912	     119.571277
	 B(7,8,17)        =         2.130268	     122.055348
	 B(8,7,19)        =         2.127283	     121.884319
	 B(8,9,10)        =         2.088904	     119.685389
	 B(9,1,18)        =         2.080118	     119.181963
	 B(9,8,17)        =         2.065987	     118.372328
	 B(11,14,15)      =         1.971086	     112.934927
	 B(12,11,13)      =         1.917094	     109.841367
	 B(12,11,14)      =         1.865984	     106.913006
	 B(13,11,14)      =         1.936078	     110.929105
	 B(14,15,16)      =         1.896177	     108.642958
	 D(1,3,2,11)      =        -1.431211	     -82.002378
	 D(1,3,4,5)       =        -3.118638	    -178.684806
	 D(1,3,4,7)       =         0.014612	       0.837216
	 D(1,9,8,7)       =         0.005299	       0.303635
	 D(1,9,8,17)      =         3.140529	     179.939075
	 D(2,3,1,9)       =        -3.095620	    -177.365939
	 D(2,3,1,18)      =         0.031195	       1.787342
	 D(2,3,4,5)       =        -0.039432	      -2.259263
	 D(2,3,4,7)       =         3.093819	     177.262759
	 D(2,11,14,6)     =        -1.708716	     -97.902217
	 D(2,11,14,15)    =         1.613350	      92.438170
	 D(3,1,9,8)       =         0.007784	       0.446016
	 D(3,1,9,10)      =        -3.141525	    -179.996099
	 D(3,2,11,12)     =         2.612478	     149.683950
	 D(3,2,11,13)     =         0.521071	      29.855178
	 D(3,2,11,14)     =        -1.641812	     -94.068885
	 D(3,4,7,8)       =        -0.001701	      -0.097489
	 D(3,4,7,19)      =         3.140127	     179.916050
	 D(4,3,1,9)       =        -0.017607	      -1.008785
	 D(4,3,1,18)      =         3.109208	     178.144497
	 D(4,3,2,11)      =         1.774257	     101.657453
	 D(4,7,8,9)       =        -0.008329	      -0.477217
	 D(4,7,8,17)      =         3.139869	     179.901255
	 D(5,4,7,8)       =         3.131449	     179.418794
	 D(5,4,7,19)      =        -0.009908	      -0.567667
	 D(6,14,11,12)    =         0.320041	      18.336974
	 D(6,14,11,13)    =         2.409951	     138.080034
	 D(6,14,15,16)    =         0.093195	       5.339662
	 D(7,8,9,10)      =        -3.128593	    -179.255150
	 D(8,9,1,18)      =        -3.119228	    -178.718577
	 D(9,8,7,19)      =         3.133019	     179.508756
	 D(10,9,1,18)     =         0.014649	       0.839307
	 D(10,9,8,17)     =         0.006637	       0.380291
	 D(11,14,15,16)   =         3.056046	     175.098558
	 D(12,11,14,15)   =        -2.641078	    -151.322640
	 D(13,11,14,15)   =        -0.551168	     -31.579580
	 D(17,8,7,19)     =        -0.001968	      -0.112773
	 R(3,15)          =         6.532507	       3.456854
	 R(4,14)          =         6.836330	       3.617630
	 R(11,18)         =         6.437723	       3.406696

	Current energy   :     -1908.8729224661

	Energy change for the previous step:
		Projected    :        -0.0012158600
		Actual       :         0.0001328821

	Performing Bofill update.
	Previous computed or guess Hessian on step 1.
	Steps to be used in Hessian update: 1
	Taking PRFO optimization step.
	Maximizing along 1 lowest eigenvalue of Hessian.

 RFO min eigenvalues
 -0.003994 -0.000000 -0.000000 -0.000000 -0.000000 -0.000000 -0.000000 -0.000000
 -0.000000 -0.000000 -0.000000 -0.000000 -0.000000 -0.000000 -0.000000 -0.000000
 -0.000000 -0.000000 -0.000000 -0.000000 -0.000000  0.000000  0.000000  0.000000
  0.000000  0.000000  0.000000  0.000000  0.000000  0.000000  0.000000  0.000000
  0.000000  0.000000  0.000000  0.000000  0.000000  0.000000  0.006911  0.011919
  0.015258  0.017291  0.019329  0.020074  0.020131  0.020180  0.020239  0.020378
  0.020477  0.020555  0.025394  0.051274  0.056624  0.069878  0.080657  0.116490
  0.121562  0.146341  0.159974  0.159997  0.160031  0.231677  0.235230  0.240194
  0.246980  0.249704  0.249962  0.249998  0.250001  0.302934  0.318215  0.323532
  0.324091  0.358820  0.358981  0.369723  0.370738  0.399497  0.436304  0.444821
  0.471841  0.479185  0.482980  0.488071  0.522542  0.569299  0.607664  1.115175

 RFO max eigenvalues
 -0.002041  0.001290
	Change in coordinate exceeds step limit of    0.50000.
	Scaling displacements by    0.59866
	Norm of target step-size    0.50000

	Back-transformation to cartesian coordinates...
	Could not converge backtransformation.
	Using first guess instead.

	--- Internal Coordinate Step in ANG or DEG, aJ/ANG or AJ/DEG ---
	 ---------------------------------------------------------------------------
	   Coordinate                Previous        Force       Change         New 
	   ----------                --------       ------       ------       ------
	    1 R(1,3)          =      1.388494    -0.003571     0.000930     1.389425
	    2 R(1,9)          =      1.380430    -0.000947     0.000062     1.380492
	    3 R(1,18)         =      1.734813    -0.001742     0.000506     1.735319
	    4 R(2,3)          =      1.356373    -0.018011     0.001015     1.357388
	    5 R(2,11)         =      1.403958     0.053037    -0.000187     1.403771
	    6 R(3,4)          =      1.382275    -0.007813     0.001374     1.383649
	    7 R(4,5)          =      1.072377    -0.001659     0.000193     1.072570
	    8 R(4,7)          =      1.383198     0.001795    -0.000099     1.383098
	    9 R(6,14)         =      1.193946    -0.134458     0.022401     1.216347
	   10 R(7,8)          =      1.386670     0.001434    -0.000011     1.386659
	   11 R(7,19)         =      1.730759    -0.001052     0.000389     1.731148
	   12 R(8,9)          =      1.384199     0.000161     0.000065     1.384265
	   13 R(8,17)         =      1.731518    -0.000367    -0.000036     1.731482
	   14 R(9,10)         =      1.071883    -0.000268     0.000152     1.072036
	   15 R(11,12)        =      1.077482    -0.000255     0.000434     1.077916
	   16 R(11,13)        =      1.083624    -0.019191     0.000415     1.084039
	   17 R(11,14)        =      1.526417    -0.024873    -0.002354     1.524062
	   18 R(14,15)        =      1.324411     0.022643     0.012077     1.336488
	   19 R(15,16)        =      0.954416    -0.010233     0.001517     0.955933
	   20 B(1,3,2)        =    121.355632     0.000040    -0.076719   121.278913
	   21 B(1,3,4)        =    119.035089     0.000048    -0.115618   118.919471
	   22 B(1,9,8)        =    120.423811    -0.000015     0.031137   120.454948
	   23 B(1,9,10)       =    119.889332     0.000010    -0.026022   119.863311
	   24 B(2,3,4)        =    119.509911    -0.000086     0.167520   119.677431
	   25 B(2,11,12)      =    106.900071    -0.000057     0.169581   107.069653
	   26 B(2,11,13)      =    111.093449     0.000076    -0.000776   111.092673
	   27 B(2,11,14)      =    110.992134     0.000139     0.112924   111.105058
	   28 B(3,1,9)        =    120.288236    -0.000006     0.026199   120.314434
	   29 B(3,1,18)       =    120.524471    -0.000045     0.098213   120.622684
	   30 B(3,2,11)       =    118.847451    -0.000075     0.015810   118.863261
	   31 B(3,4,5)        =    118.923145     0.000030    -0.032446   118.890698
	   32 B(3,4,7)        =    120.944544    -0.000027     0.062408   121.006953
	   33 B(4,7,8)        =    119.729043     0.000000    -0.005943   119.723100
	   34 B(4,7,19)       =    118.386637     0.000002    -0.007401   118.379236
	   35 B(5,4,7)        =    120.130581    -0.000003    -0.029162   120.101419
	   36 B(6,14,11)      =    123.525362     0.000053    -0.189840   123.335521
	   37 B(6,14,15)      =    122.686754     0.000012     1.268319   123.955072
	   38 B(7,8,9)        =    119.571277     0.000000    -0.002695   119.568582
	   39 B(7,8,17)       =    122.055348     0.000002    -0.000048   122.055300
	   40 B(8,7,19)       =    121.884319    -0.000002     0.013328   121.897647
	   41 B(8,9,10)       =    119.685389     0.000005    -0.005310   119.680078
	   42 B(9,1,18)       =    119.181963     0.000051    -0.125893   119.056070
	   43 B(9,8,17)       =    118.372328    -0.000002     0.002318   118.374645
	   44 B(11,14,15)     =    112.934927     0.000066    -0.395297   112.539630
	   45 B(12,11,13)     =    109.841367     0.000070    -0.266242   109.575125
	   46 B(12,11,14)     =    106.913006     0.000034     0.094452   107.007459
	   47 B(13,11,14)     =    110.929105    -0.000256    -0.103425   110.825680
	   48 B(14,15,16)     =    108.642958    -0.000012    -0.769205   107.873753
	   49 D(1,3,2,11)     =    -82.002378    -0.000000     0.591681   -81.410696
	   50 D(1,3,4,5)      =   -178.684806    -0.000004     0.139243  -178.545564
	   51 D(1,3,4,7)      =      0.837216    -0.000004     0.266695     1.103911
	   52 D(1,9,8,7)      =      0.303635    -0.000002     0.066676     0.370311
	   53 D(1,9,8,17)     =    179.939075     0.000000    -0.001102   179.937973
	   54 D(2,3,1,9)      =   -177.365939    -0.000003     0.170050  -177.195889
	   55 D(2,3,1,18)     =      1.787342    -0.000001     0.058401     1.845743
	   56 D(2,3,4,5)      =     -2.259263     0.000004    -0.284866    -2.544130
	   57 D(2,3,4,7)      =    177.262759     0.000003    -0.157414   177.105345
	   58 D(2,11,14,6)    =    -97.902217     0.000084    13.370236   -84.531981
	   59 D(2,11,14,15)   =     92.438170    -0.000097     7.601837   100.040006
	   60 D(3,1,9,8)      =      0.446016    -0.000001     0.088996     0.535012
	   61 D(3,1,9,10)     =   -179.996099    -0.000000     0.060511  -179.935589
	   62 D(3,2,11,12)    =    149.683950    -0.000005     2.348593   152.032543
	   63 D(3,2,11,13)    =     29.855178    -0.000026     2.567592    32.422770
	   64 D(3,2,11,14)    =    -94.068885     0.000014     2.620181   -91.448704
	   65 D(3,4,7,8)      =     -0.097489     0.000002    -0.115566    -0.213054
	   66 D(3,4,7,19)     =    179.916050     0.000001    -0.083316   179.832734
	   67 D(4,3,1,9)      =     -1.008785     0.000004    -0.252108    -1.260892
	   68 D(4,3,1,18)     =    178.144497     0.000006    -0.363757   177.780740
	   69 D(4,3,2,11)     =    101.657453    -0.000008     1.027194   102.684647
	   70 D(4,7,8,9)      =     -0.477217     0.000001    -0.053788    -0.531005
	   71 D(4,7,8,17)     =    179.901255    -0.000001     0.016567   179.917822
	   72 D(5,4,7,8)      =    179.418794     0.000002     0.013411   179.432205
	   73 D(5,4,7,19)     =     -0.567667     0.000001     0.045661    -0.522007
	   74 D(6,14,11,12)   =     18.336974     0.000090    13.687964    32.024938
	   75 D(6,14,11,13)   =    138.080034     0.000081    13.364587   151.444621
	   76 D(6,14,15,16)   =      5.339662    -0.000084    -2.698542     2.641119
	   77 D(7,8,9,10)     =   -179.255150    -0.000002     0.095201  -179.159948
	   78 D(8,9,1,18)     =   -178.718577    -0.000003     0.197041  -178.521536
	   79 D(9,8,7,19)     =    179.508756     0.000002    -0.087211   179.421544
	   80 D(10,9,1,18)    =      0.839307    -0.000002     0.168555     1.007863
	   81 D(10,9,8,17)    =      0.380291    -0.000000     0.027423     0.407714
	   82 D(11,14,15,16)  =    175.098558     0.000096     2.937482   178.036039
	   83 D(12,11,14,15)  =   -151.322640    -0.000091     7.919565  -143.403075
	   84 D(13,11,14,15)  =    -31.579580    -0.000100     7.596188   -23.983392
	   85 D(17,8,7,19)    =     -0.112773     0.000000    -0.016857    -0.129629
	   86 R(3,15)         =      3.456854    -0.013871     0.063106     3.519959
	   87 R(4,14)         =      3.617630     0.006884    -0.013568     3.604062
	   88 R(11,18)        =      3.406696     0.003157    -0.008435     3.398261
	 ---------------------------------------------------------------------------
	Successfully symmetrized geometry.

  ==> Convergence Check <==

  Measures of convergence in internal coordinates in au.
  Criteria marked as inactive (o), active & met (*), and active & unmet ( ).
  ---------------------------------------------------------------------------------------------
   Step     Total Energy     Delta E     MAX Force     RMS Force      MAX Disp      RMS Disp   
  ---------------------------------------------------------------------------------------------
    Convergence Criteria             o    1.50e-05 *    1.00e-05 *    6.00e-05 *    4.00e-05 *
  ---------------------------------------------------------------------------------------------
      2   -1908.87292247    1.33e-04 o    1.63e-02      2.57e-03      2.39e-01      5.33e-02    ~
  ---------------------------------------------------------------------------------------------

	Writing optimization data to binary file.
	Structure for next step:
	Cartesian Geometry (in Angstrom)
	    C     1.2370420953  -0.5444786138  -0.6490000734
	    O     1.2519004649   1.7961531090  -0.1463548165
	    C     0.5753402570   0.6324388636  -0.3211014914
	    C    -0.8067375564   0.6270033887  -0.2553955866
	    H    -1.3181898051   1.5412918996  -0.0253974482
	    O     0.8229057349   3.9878966057   2.0411946219
	    C    -1.5265396750  -0.5309201305  -0.4879014229
	    C    -0.8578406790  -1.7059107585  -0.7962213367
	    C     0.5239609484  -1.7040010137  -0.8787394175
	    H     1.0419627345  -2.6082557340  -1.1302510112
	    C     1.8802307054   2.0362403865   1.0857701744
	    H     2.7183464658   2.6858721580   0.8922658497
	    H     2.2318990018   1.1124832507   1.5309032080
	    C     0.9519039983   2.7784096687   2.0397936396
	    O     0.3762956823   1.9652659613   2.9306773155
	    H    -0.1633715313   2.5003595434   3.5105405904
	   CL    -1.6980359753  -3.1898463980  -1.0962813355
	   CL     2.9655216193  -0.5741397544  -0.8000282501
	   CL    -3.2531444987  -0.4613804430  -0.3836220576
			--------------------------
			 OPTKING Finished Execution 
			--------------------------

    Structure for next step:
    Molecular point group: c1
    Full point group: C1

    Geometry (in Angstrom), charge = 0, multiplicity = 1:

    C            1.244748074872    -0.546571674644    -0.645530792730
    O            1.259606444473     1.794060048138    -0.142885535869
    C            0.583046236591     0.630345802832    -0.317632210750
    C           -0.799031576815     0.624910327874    -0.251926305926
    H           -1.310483825481     1.539198838833    -0.021928167532
    O            0.830611714451     3.985803544894     2.044663902543
    C           -1.518833695383    -0.533013191337    -0.484432142230
    C           -0.850134699465    -1.708003819278    -0.792752056109
    C            0.531666927984    -1.706094074470    -0.875270136827
    H            1.049668714032    -2.610348794824    -1.126781730538
    C            1.887936684988     2.034147325670     1.089239454988
    H            2.726052445359     2.683779097216     0.895735130368
    H            2.239604981349     1.110390189862     1.534372488651
    C            0.959609977922     2.776316607897     2.043262920245
    O            0.384001661896     1.963172900470     2.934146596162
    H           -0.155665551718     2.498266482579     3.514009871044
    CL          -1.690329995708    -3.191939458810    -1.092812054826
    CL           2.973227598894    -0.576232815191    -0.796558969474
    CL          -3.245438519071    -0.463473503814    -0.380152776980

gradient() will perform analytic gradient computation.

*** tstart() called on dakota
*** at Thu Sep 27 09:14:51 2018


         ---------------------------------------------------------
                                   SCF
[...]
	 Skipping Hessian update for step 31.
	Denominators (dg)(dq) or (dq)(dq) are very small.
	 Skipping Hessian update for step 30.
	Denominators (dg)(dq) or (dq)(dq) are very small.
	 Skipping Hessian update for step 29.
	Denominators (dg)(dq) or (dq)(dq) are very small.
	 Skipping Hessian update for step 28.
	Denominators (dg)(dq) or (dq)(dq) are very small.
	 Skipping Hessian update for step 27.
	Denominators (dg)(dq) or (dq)(dq) are very small.
	 Skipping Hessian update for step 26.
	Denominators (dg)(dq) or (dq)(dq) are very small.
	 Skipping Hessian update for step 25.
	Denominators (dg)(dq) or (dq)(dq) are very small.
	 Skipping Hessian update for step 24.
	Denominators (dg)(dq) or (dq)(dq) are very small.
	 Skipping Hessian update for step 23.
	Denominators (dg)(dq) or (dq)(dq) are very small.
	 Skipping Hessian update for step 22.
	Denominators (dg)(dq) or (dq)(dq) are very small.
	 Skipping Hessian update for step 21.
	Denominators (dg)(dq) or (dq)(dq) are very small.
	 Skipping Hessian update for step 20.
	Denominators (dg)(dq) or (dq)(dq) are very small.
	 Skipping Hessian update for step 19.
	Denominators (dg)(dq) or (dq)(dq) are very small.
	 Skipping Hessian update for step 18.
	Denominators (dg)(dq) or (dq)(dq) are very small.
	 Skipping Hessian update for step 17.
	Denominators (dg)(dq) or (dq)(dq) are very small.
	 Skipping Hessian update for step 16.
	Denominators (dg)(dq) or (dq)(dq) are very small.
	 Skipping Hessian update for step 15.
	Denominators (dg)(dq) or (dq)(dq) are very small.
	 Skipping Hessian update for step 14.
	Denominators (dg)(dq) or (dq)(dq) are very small.
	 Skipping Hessian update for step 13.
	Denominators (dg)(dq) or (dq)(dq) are very small.
	 Skipping Hessian update for step 12.
	Denominators (dg)(dq) or (dq)(dq) are very small.
	 Skipping Hessian update for step 11.
	Steps to be used in Hessian update: 10 9
	Taking PRFO optimization step.
	Maximizing along 1 lowest eigenvalue of Hessian.

 RFO min eigenvalues
 -0.000000 -0.000000 -0.000000 -0.000000 -0.000000 -0.000000 -0.000000 -0.000000
 -0.000000 -0.000000 -0.000000 -0.000000 -0.000000 -0.000000 -0.000000 -0.000000
 -0.000000 -0.000000 -0.000000  0.000000  0.000000  0.000000  0.000000  0.000000
  0.000000  0.000000  0.000000  0.000000  0.000000  0.000000  0.000000  0.000000
  0.000000  0.000000  0.000000  0.000000  0.000000  0.000000  0.002584  0.011302
  0.015373  0.018633  0.019486  0.020098  0.020191  0.020264  0.020507  0.020557
  0.020895  0.021889  0.026321  0.045265  0.064473  0.071087  0.085652  0.117072
  0.132549  0.146099  0.159928  0.159996  0.163504  0.231716  0.234885  0.240197
  0.248503  0.249965  0.249992  0.250026  0.276692  0.303587  0.318226  0.323530
  0.324098  0.359225  0.359839  0.369739  0.370754  0.399691  0.436176  0.442901
  0.471933  0.478007  0.482632  0.487999  0.521735  0.569498  0.612608  1.090188

 RFO max eigenvalues
 -0.004523  0.000000
	Norm of target step-size    0.00015

	Back-transformation to cartesian coordinates...
	Successfully converged to displaced geometry.

	--- Internal Coordinate Step in ANG or DEG, aJ/ANG or AJ/DEG ---
	 ---------------------------------------------------------------------------
	   Coordinate                Previous        Force       Change         New 
	   ----------                --------       ------       ------       ------
	    1 R(1,3)          =      1.388497    -0.000002     0.000000     1.388497
	    2 R(1,9)          =      1.380393    -0.000004    -0.000001     1.380392
	    3 R(1,18)         =      1.734945    -0.000000    -0.000000     1.734945
	    4 R(2,3)          =      1.355029     0.000002    -0.000000     1.355028
	    5 R(2,11)         =      1.411680    -0.000002     0.000000     1.411680
	    6 R(3,4)          =      1.382201     0.000002    -0.000000     1.382201
	    7 R(4,5)          =      1.072570    -0.000001    -0.000000     1.072569
	    8 R(4,7)          =      1.383293    -0.000009    -0.000001     1.383292
	    9 R(6,14)         =      1.184523     0.000023     0.000001     1.184524
	   10 R(7,8)          =      1.386639    -0.000001    -0.000001     1.386639
	   11 R(7,19)         =      1.730602    -0.000001    -0.000000     1.730601
	   12 R(8,9)          =      1.384133    -0.000011    -0.000001     1.384132
	   13 R(8,17)         =      1.731536    -0.000001    -0.000000     1.731536
	   14 R(9,10)         =      1.071845    -0.000005    -0.000001     1.071844
	   15 R(11,12)        =      1.077431     0.000000    -0.000000     1.077430
	   16 R(11,13)        =      1.079811    -0.000002    -0.000000     1.079810
	   17 R(11,14)        =      1.520917    -0.000002    -0.000001     1.520916
	   18 R(14,15)        =      1.327454    -0.000018    -0.000000     1.327453
	   19 R(15,16)        =      0.953265     0.000003     0.000000     0.953265
	   20 B(1,3,2)        =    121.797868    -0.000000    -0.000078   121.797790
	   21 B(1,3,4)        =    119.039951    -0.000000    -0.000024   119.039927
	   22 B(1,9,8)        =    120.466143     0.000000     0.000086   120.466228
	   23 B(1,9,10)       =    119.875943    -0.000000    -0.000038   119.875906
	   24 B(2,3,4)        =    119.067436     0.000000     0.000039   119.067475
	   25 B(2,11,12)      =    105.969592     0.000000    -0.000007   105.969586
	   26 B(2,11,13)      =    111.300051     0.000000     0.000133   111.300183
	   27 B(2,11,14)      =    110.334868    -0.000000    -0.000083   110.334785
	   28 B(3,1,9)        =    120.250279    -0.000000    -0.000043   120.250236
	   29 B(3,1,18)       =    120.619522     0.000000    -0.000081   120.619441
	   30 B(3,2,11)       =    118.378870    -0.000000    -0.000002   118.378868
	   31 B(3,4,5)        =    118.899833     0.000000     0.000038   118.899870
	   32 B(3,4,7)        =    120.967458     0.000000     0.000007   120.967465
	   33 B(4,7,8)        =    119.705337     0.000000     0.000016   119.705353
	   34 B(4,7,19)       =    118.411754    -0.000000    -0.000067   118.411687
	   35 B(5,4,7)        =    120.128306    -0.000000    -0.000049   120.128257
	   36 B(6,14,11)      =    124.370258     0.000000     0.000169   124.370426
	   37 B(6,14,15)      =    123.335948    -0.000000    -0.000385   123.335563
	   38 B(7,8,9)        =    119.560899    -0.000000    -0.000042   119.560857
	   39 B(7,8,17)       =    122.070148     0.000000     0.000025   122.070173
	   40 B(8,7,19)       =    121.882908     0.000000     0.000052   121.882959
	   41 B(8,9,10)       =    119.656363    -0.000000    -0.000052   119.656311
	   42 B(9,1,18)       =    119.122156     0.000000     0.000097   119.122252
	   43 B(9,8,17)       =    118.367796     0.000000     0.000000   118.367796
	   44 B(11,14,15)     =    112.287928     0.000000     0.000221   112.288149
	   45 B(12,11,13)     =    110.301962    -0.000000    -0.000046   110.301916
	   46 B(12,11,14)     =    108.198512     0.000000     0.000000   108.198512
	   47 B(13,11,14)     =    110.592086     0.000000    -0.000002   110.592084
	   48 B(14,15,16)     =    108.763255     0.000000     0.000092   108.763347
	   49 D(1,3,2,11)     =    -81.796074    -0.000000     0.000200   -81.795874
	   50 D(1,3,4,5)      =   -178.300988     0.000000     0.001086  -178.299902
	   51 D(1,3,4,7)      =      0.936545     0.000000     0.000684     0.937229
	   52 D(1,9,8,7)      =      0.371492     0.000000     0.000616     0.372108
	   53 D(1,9,8,17)     =    179.988392    -0.000000    -0.002021   179.986371
	   54 D(2,3,1,9)      =   -177.535723     0.000000     0.001442  -177.534281
	   55 D(2,3,1,18)     =      1.423515    -0.000000    -0.000296     1.423219
	   56 D(2,3,4,5)      =     -1.775579    -0.000000    -0.000056    -1.775635
	   57 D(2,3,4,7)      =    177.461954    -0.000000    -0.000458   177.461496
	   58 D(2,11,14,6)    =    -82.492801    -0.000000    -0.001795   -82.494595
	   59 D(2,11,14,15)   =     96.649682    -0.000000    -0.001480    96.648203
	   60 D(3,1,9,8)      =      0.463695    -0.000000    -0.000922     0.462772
	   61 D(3,1,9,10)     =   -179.990934    -0.000000    -0.001511  -179.992445
	   62 D(3,2,11,12)    =    161.161492     0.000000    -0.000232   161.161261
	   63 D(3,2,11,13)    =     41.232314     0.000000    -0.000246    41.232068
	   64 D(3,2,11,14)    =    -81.934729     0.000000    -0.000277   -81.935006
	   65 D(3,4,7,8)      =     -0.111869    -0.000000    -0.000988    -0.112857
	   66 D(3,4,7,19)     =    179.876061     0.000000     0.002160   179.878221
	   67 D(4,3,1,9)      =     -1.109113    -0.000000     0.000272    -1.108841
	   68 D(4,3,1,18)     =    177.850125    -0.000000    -0.001466   177.848659
	   69 D(4,3,2,11)     =    101.778270     0.000000     0.001373   101.779643
	   70 D(4,7,8,9)      =     -0.546622     0.000000     0.000331    -0.546291
	   71 D(4,7,8,17)     =    179.851179     0.000000     0.003070   179.854249
	   72 D(5,4,7,8)      =    179.116351    -0.000000    -0.001394   179.114957
	   73 D(5,4,7,19)     =     -0.895718     0.000000     0.001754    -0.893965
	   74 D(6,14,11,12)   =     33.019198    -0.000000    -0.001847    33.017351
	   75 D(6,14,11,13)   =    153.928737    -0.000000    -0.001904   153.926833
	   76 D(6,14,15,16)   =      0.555953     0.000000     0.000071     0.556024
	   77 D(7,8,9,10)     =   -179.174875     0.000000     0.001204  -179.173671
	   78 D(8,9,1,18)     =   -178.511051     0.000000     0.000791  -178.510260
	   79 D(9,8,7,19)     =    179.465880    -0.000000    -0.002930   179.462951
	   80 D(10,9,1,18)    =      1.034320     0.000000     0.000202     1.034523
	   81 D(10,9,8,17)    =      0.442025    -0.000000    -0.001434     0.440591
	   82 D(11,14,15,16)  =   -178.596853    -0.000000    -0.000245  -178.597098
	   83 D(12,11,14,15)  =   -147.838319    -0.000000    -0.001532  -147.839851
	   84 D(13,11,14,15)  =    -26.928780    -0.000000    -0.001589   -26.930369
	   85 D(17,8,7,19)    =     -0.136319    -0.000000    -0.000190    -0.136510
	   86 R(3,15)         =      3.346049     0.000001    -0.000016     3.346033
	   87 R(4,14)         =      3.455113    -0.000001     0.000018     3.455131
	   88 R(11,18)        =      3.419912    -0.000001    -0.000005     3.419907
	 ---------------------------------------------------------------------------
	Successfully symmetrized geometry.

  ==> Convergence Check <==

  Measures of convergence in internal coordinates in au.
  Criteria marked as inactive (o), active & met (*), and active & unmet ( ).
  ---------------------------------------------------------------------------------------------
   Step     Total Energy     Delta E     MAX Force     RMS Force      MAX Disp      RMS Disp   
  ---------------------------------------------------------------------------------------------
    Convergence Criteria             o    1.50e-05 *    1.00e-05 *    6.00e-05 *    4.00e-05 *
  ---------------------------------------------------------------------------------------------
     46   -1908.87498665   -2.86e-09 o    2.77e-06 *    6.21e-07 *    5.36e-05 *    1.60e-05 *  ~
  ---------------------------------------------------------------------------------------------


  **** Optimization is complete! (in 46 steps) ****

  ==> Optimization Summary <==

  Measures of convergence in internal coordinates in au.
  --------------------------------------------------------------------------------------------------------------- ~
   Step         Total Energy             Delta E       MAX Force       RMS Force        MAX Disp        RMS Disp  ~
  --------------------------------------------------------------------------------------------------------------- ~
      1   -1908.873055348269  -1908.873055348269      0.01108627      0.00262139      0.20367740      0.03925748  ~
      2   -1908.872922466125      0.000132882143      0.01632022      0.00257197      0.23890005      0.05327120  ~
      3   -1908.872100766955      0.000821699170      0.05971933      0.00671538      0.05680414      0.01655927  ~
      4   -1908.874627216607     -0.002526449652      0.00599910      0.00115876      0.21906456      0.05066425  ~
      5   -1908.873239932870      0.001387283736      0.04909444      0.00580722      0.09278623      0.02488470  ~
      6   -1908.874941377612     -0.001701444742      0.00167754      0.00032691      0.08277915      0.01876100  ~
      7   -1908.874964677205     -0.000023299593      0.00163547      0.00039441      0.03265200      0.00792326  ~
      8   -1908.874979778461     -0.000015101256      0.00100017      0.00017863      0.02726924      0.00562426  ~
      9   -1908.874985911169     -0.000006132708      0.00020303      0.00004949      0.01169701      0.00224364  ~
     10   -1908.874986373455     -0.000000462285      0.00017651      0.00003371      0.00496639      0.00093422  ~
     11   -1908.874986606846     -0.000000233391      0.00005077      0.00001200      0.00052705      0.00017532  ~
     12   -1908.874986648710     -0.000000041864      0.00002847      0.00000561      0.00043523      0.00010099  ~
     13   -1908.874986656473     -0.000000007763      0.00000357      0.00000129      0.00080364      0.00016432  ~
     14   -1908.874986645099      0.000000011373      0.00000864      0.00000211      0.00059890      0.00012344  ~
     15   -1908.874986647628     -0.000000002529      0.00000900      0.00000189      0.00025227      0.00006292  ~
     16   -1908.874986651195     -0.000000003567      0.00000290      0.00000087      0.00024519      0.00005511  ~
     17   -1908.874986647382      0.000000003813      0.00000384      0.00000096      0.00010955      0.00003747  ~
     18   -1908.874986649625     -0.000000002243      0.00000334      0.00000079      0.00016422      0.00003971  ~
     19   -1908.874986651508     -0.000000001882      0.00000286      0.00000078      0.00010090      0.00003143  ~
     20   -1908.874986651992     -0.000000000485      0.00000407      0.00000080      0.00006664      0.00001928  ~
     21   -1908.874986657754     -0.000000005761      0.00000170      0.00000051      0.00014376      0.00003558  ~
     22   -1908.874986648144      0.000000009609      0.00000179      0.00000059      0.00009292      0.00003075  ~
     23   -1908.874986652734     -0.000000004590      0.00000357      0.00000074      0.00014233      0.00003215  ~
     24   -1908.874986645326      0.000000007408      0.00000291      0.00000065      0.00009020      0.00002273  ~
     25   -1908.874986648586     -0.000000003260      0.00000319      0.00000062      0.00007144      0.00002055  ~
     26   -1908.874986653012     -0.000000004425      0.00000160      0.00000050      0.00015634      0.00003579  ~
     27   -1908.874986653242     -0.000000000230      0.00000277      0.00000063      0.00009531      0.00003173  ~
     28   -1908.874986649548      0.000000003693      0.00000321      0.00000073      0.00008295      0.00002081  ~
     29   -1908.874986650196     -0.000000000648      0.00000281      0.00000052      0.00011966      0.00002625  ~
     30   -1908.874986650525     -0.000000000329      0.00000223      0.00000051      0.00007409      0.00002357  ~
     31   -1908.874986646507      0.000000004019      0.00000277      0.00000055      0.00015385      0.00003429  ~
     32   -1908.874986649517     -0.000000003010      0.00000270      0.00000064      0.00006531      0.00002275  ~
     33   -1908.874986654172     -0.000000004655      0.00000358      0.00000069      0.00006827      0.00002024  ~
     34   -1908.874986652800      0.000000001372      0.00000238      0.00000053      0.00009334      0.00002492  ~
     35   -1908.874986649410      0.000000003390      0.00000207      0.00000054      0.00010975      0.00002973  ~
     36   -1908.874986645448      0.000000003962      0.00000279      0.00000058      0.00011149      0.00002712  ~
     37   -1908.874986651833     -0.000000006385      0.00000285      0.00000064      0.00008642      0.00002221  ~
     38   -1908.874986654136     -0.000000002304      0.00000327      0.00000058      0.00006048      0.00001832  ~
     39   -1908.874986655601     -0.000000001465      0.00000167      0.00000045      0.00012744      0.00002886  ~
     40   -1908.874986644920      0.000000010681      0.00000282      0.00000059      0.00010029      0.00002870  ~
     41   -1908.874986647238     -0.000000002318      0.00000304      0.00000068      0.00009589      0.00002417  ~
     42   -1908.874986647783     -0.000000000546      0.00000300      0.00000058      0.00008386      0.00002029  ~
     43   -1908.874986655645     -0.000000007862      0.00000237      0.00000051      0.00009265      0.00002408  ~
     44   -1908.874986653466      0.000000002179      0.00000231      0.00000050      0.00014224      0.00003106  ~
     45   -1908.874986646623      0.000000006843      0.00000212      0.00000055      0.00007687      0.00002488  ~
     46   -1908.874986649481     -0.000000002858      0.00000277      0.00000062      0.00005358      0.00001600  ~
  --------------------------------------------------------------------------------------------------------------- ~

	Writing optimization data to binary file.
	Final energy is  -1908.8749866494809
	Final (previous) structure:
	Cartesian Geometry (in Angstrom)
	    C     1.2513811443  -0.5609823438  -0.6521034211
	    O     1.3520662940   1.7935802814  -0.2131396329
	    C     0.6396434404   0.6498645812  -0.3562145453
	    C    -0.7392680308   0.7033231565  -0.2773141411
	    H    -1.2108064353   1.6453809796  -0.0758593437
	    O     0.6880726467   3.7715444366   2.0672414999
	    C    -1.5076910254  -0.4307775424  -0.4692518076
	    C    -0.8897158710  -1.6405421007  -0.7473623881
	    C     0.4900972633  -1.6968751678  -0.8409961135
	    H     0.9685955068  -2.6284851880  -1.0690189938
	    C     1.9814613810   2.0414673463   1.0259145318
	    H     2.7379311141   2.7834870328   0.8309348351
	    H     2.4308281198   1.1439655244   1.4240990594
	    C     0.9865190280   2.6263608110   2.0164580895
	    O     0.4689099108   1.7014662203   2.8156975852
	    H    -0.1607495040   2.1172019008   3.3982833825
	   CL    -1.7912734286  -3.0980468487  -0.9945275921
	   CL     2.9755460558  -0.6631878134  -0.8159408171
	   CL    -3.2284987302  -0.2889904010  -0.3522083103
	Saving final (previous) structure.
			--------------------------
			 OPTKING Finished Execution 
			--------------------------

    Final optimized geometry and variables:
    Molecular point group: c1
    Full point group: C1

    Geometry (in Angstrom), charge = 0, multiplicity = 1:

    C            1.251381144312    -0.560982343778    -0.652103421092
    O            1.352066294040     1.793580281435    -0.213139632918
    C            0.639643440366     0.649864581174    -0.356214545326
    C           -0.739268030756     0.703323156542    -0.277314141143
    H           -1.210806435335     1.645380979617    -0.075859343719
    O            0.688072646708     3.771544436609     2.067241499874
    C           -1.507691025358    -0.430777542410    -0.469251807609
    C           -0.889715870976    -1.640542100672    -0.747362388132
    C            0.490097263286    -1.696875167758    -0.840996113486
    H            0.968595506776    -2.628485188017    -1.069018993790
    C            1.981461380985     2.041467346266     1.025914531833
    H            2.737931114104     2.783487032826     0.830934835085
    H            2.430828119818     1.143965524431     1.424099059375
    C            0.986519027973     2.626360810964     2.016458089542
    O            0.468909910845     1.701466220296     2.815697585219
    H           -0.160749504033     2.117201900833     3.398283382466
    CL          -1.791273428645    -3.098046848699    -0.994527592096
    CL           2.975546055842    -0.663187813395    -0.815940817115
    CL          -3.228498730220    -0.288990401012    -0.352208310254

	Cleaning optimization helper files.

*** Psi4 exiting successfully. Buy a developer a beer!
