
    -----------------------------------------------------------------------
          Psi4: An Open-Source Ab Initio Electronic Structure Package
                               Psi4 1.2.1 release

                         Git: Rev {HEAD} 406f4de 


    R. M. Parrish, L. A. Burns, D. G. A. Smith, A. C. Simmonett,
    A. E. DePrince III, E. G. Hohenstein, U. Bozkaya, A. Yu. Sokolov,
    R. Di Remigio, R. M. Richard, J. F. Gonthier, A. M. James,
    H. R. McAlexander, A. Kumar, M. Saitow, X. Wang, B. P. Pritchard,
    P. Verma, H. F. Schaefer III, K. Patkowski, R. A. King, E. F. Valeev,
    F. A. Evangelista, J. M. Turney, T. D. Crawford, and C. D. Sherrill,
    J. Chem. Theory Comput. 13(7) pp 3185--3197 (2017).
    (doi: 10.1021/acs.jctc.7b00174)


                         Additional Contributions by
    P. Kraus, H. Kruse, M. H. Lechner, M. C. Schieber, and R. A. Shaw

    -----------------------------------------------------------------------


    Psi4 started on: Wednesday, 26 September 2018 03:39PM

    Process ID: 431505
    Host:       wr53
    PSIDATADIR: /usr/local/hpc1/software_molmod/psi4/psi4conda/share/psi4
    Memory:     500.0 MiB
    Threads:    16
    
  ==> Input File <==

--------------------------------------------------------------------------
memory 110 Gb

molecule conf3 {
0 1
C          3.73000       -0.46300        0.47100
O          3.08700        1.55700        1.57900
C          3.90600        0.89100        0.73000
C          4.97900        1.54900        0.16000
H          5.11900        2.58900        0.37600
O          1.37400        2.93700        3.21100
C          5.86200        0.88100       -0.67000
C          5.67300       -0.46700       -0.93600
C          4.60500       -1.13300       -0.35900
H          4.46300       -2.17800       -0.55400
C          1.85900        2.01700        1.08900
H          1.29800        1.14900        0.77300
H          1.97800        2.66500        0.23100
C          1.00100        2.75300        2.09900
O         -0.15900        3.18800        1.63700
H         -0.60300        3.65000        2.34300
Cl         6.73800       -1.35900       -1.96900
Cl         2.42300       -1.33800        1.20300
Cl         7.18200        1.76900       -1.35100
}
set globals {
  reference rhf
  g_convergence gau_tight
  basis 6-31G(d)
}
optimize('scf')
print_variables()
--------------------------------------------------------------------------

  Memory set to 102.445 GiB by Python driver.
gradient() will perform analytic gradient computation.

*** tstart() called on wr53
*** at Wed Sep 26 15:39:34 2018

   => Loading Basis Set <=

    Name: 6-31G(D)
    Role: ORBITAL
    Keyword: BASIS
    atoms 1, 3-4, 7-9, 11, 14 entry C          line   111 file /usr/local/hpc1/software_molmod/psi4/psi4conda/share/psi4/basis/6-31g_d_.gbs 
    atoms 2, 6, 15            entry O          line   145 file /usr/local/hpc1/software_molmod/psi4/psi4conda/share/psi4/basis/6-31g_d_.gbs 
    atoms 5, 10, 12-13, 16    entry H          line    44 file /usr/local/hpc1/software_molmod/psi4/psi4conda/share/psi4/basis/6-31g_d_.gbs 
    atoms 17-19               entry CL         line   340 file /usr/local/hpc1/software_molmod/psi4/psi4conda/share/psi4/basis/6-31g_d_.gbs 


         ---------------------------------------------------------
                                   SCF
            by Justin Turney, Rob Parrish, Andy Simmonett
                             and Daniel Smith
                              RHF Reference
                       16 Threads, 104904 MiB Core
         ---------------------------------------------------------

  ==> Geometry <==

    Molecular point group: c1
    Full point group: C1

    Geometry (in Angstrom), charge = 0, multiplicity = 1:

       Center              X                  Y                   Z               Mass       
    ------------   -----------------  -----------------  -----------------  -----------------
         C           -0.334250943740    -1.135209561174     0.223010606265    12.000000000000
         O           -0.977250943740     0.884790438826     1.331010606265    15.994914619560
         C           -0.158250943740     0.218790438826     0.482010606265    12.000000000000
         C            0.914749056260     0.876790438826    -0.087989393735    12.000000000000
         H            1.054749056260     1.916790438826     0.128010606265     1.007825032070
         O           -2.690250943740     2.264790438826     2.963010606265    15.994914619560
         C            1.797749056260     0.208790438826    -0.917989393735    12.000000000000
         C            1.608749056260    -1.139209561174    -1.183989393735    12.000000000000
         C            0.540749056260    -1.805209561174    -0.606989393735    12.000000000000
         H            0.398749056260    -2.850209561174    -0.801989393735     1.007825032070
         C           -2.205250943740     1.344790438826     0.841010606265    12.000000000000
         H           -2.766250943740     0.476790438826     0.525010606265     1.007825032070
         H           -2.086250943740     1.992790438826    -0.016989393735     1.007825032070
         C           -3.063250943740     2.080790438826     1.851010606265    12.000000000000
         O           -4.223250943740     2.515790438826     1.389010606265    15.994914619560
         H           -4.667250943740     2.977790438826     2.095010606265     1.007825032070
         CL           2.673749056260    -2.031209561174    -2.216989393735    34.968852682000
         CL          -1.641250943740    -2.010209561174     0.955010606265    34.968852682000
         CL           3.117749056260     1.096790438826    -1.598989393735    34.968852682000

  Running in c1 symmetry.

  Rotational constants: A =      0.02830  B =      0.00788  C =      0.00644 [cm^-1]
  Rotational constants: A =    848.54197  B =    236.20910  C =    192.98043 [MHz]
  Nuclear repulsion = 1163.328659806638143

  Charge       = 0
  Multiplicity = 1
  Electrons    = 128
  Nalpha       = 64
  Nbeta        = 64

  ==> Algorithm <==

  SCF Algorithm Type is DF.
  DIIS enabled.
  MOM disabled.
  Fractional occupation disabled.
  Guess Type is SAD.
  Energy threshold   = 1.00e-08
  Density threshold  = 1.00e-08
  Integral threshold = 0.00e+00

  ==> Primary Basis <==

  Basis Set: 6-31G(D)
    Blend: 6-31G(D)
    Number of shells: 100
    Number of basis function: 232
    Number of Cartesian functions: 232
    Spherical Harmonics?: false
    Max angular momentum: 2

   => Loading Basis Set <=

    Name: (6-31G(D) AUX)
    Role: JKFIT
    Keyword: DF_BASIS_SCF
    atoms 1, 3-4, 7-9, 11, 14 entry C          line   121 file /usr/local/hpc1/software_molmod/psi4/psi4conda/share/psi4/basis/cc-pvdz-jkfit.gbs 
    atoms 2, 6, 15            entry O          line   221 file /usr/local/hpc1/software_molmod/psi4/psi4conda/share/psi4/basis/cc-pvdz-jkfit.gbs 
    atoms 5, 10, 12-13, 16    entry H          line    51 file /usr/local/hpc1/software_molmod/psi4/psi4conda/share/psi4/basis/cc-pvdz-jkfit.gbs 
    atoms 17-19               entry CL         line   667 file /usr/local/hpc1/software_molmod/psi4/psi4conda/share/psi4/basis/cc-pvdz-jkfit.gbs 

  ==> Pre-Iterations <==

   -------------------------------------------------------
    Irrep   Nso     Nmo     Nalpha   Nbeta   Ndocc  Nsocc
   -------------------------------------------------------
     A        232     232       0       0       0       0
   -------------------------------------------------------
    Total     232     232      64      64      64       0
   -------------------------------------------------------

  ==> Integral Setup <==

  ==> DiskDFJK: Density-Fitted J/K Matrices <==

    J tasked:                  Yes
    K tasked:                  Yes
    wK tasked:                  No
    OpenMP threads:             16
    Integrals threads:          16
    Memory (MB):             78678
    Algorithm:                Core
    Integral Cache:           NONE
    Schwarz Cutoff:          1E-12
    Fitting Condition:       1E-12

   => Auxiliary Basis Set <=

  Basis Set: (6-31G(D) AUX)
    Blend: CC-PVDZ-JKFIT
    Number of shells: 417
    Number of basis function: 1406
    Number of Cartesian functions: 1406
    Spherical Harmonics?: false
    Max angular momentum: 3

  Minimum eigenvalue in the overlap matrix is 3.6757595557E-04.
  Using Symmetric Orthogonalization.

  SCF Guess: Superposition of Atomic Densities via on-the-fly atomic UHF.

  ==> Iterations <==

                           Total Energy        Delta E     RMS |[F,P]|

   @DF-RHF iter   0: -1914.35003607076965   -1.91435e+03   4.56725e-02 
   @DF-RHF iter   1: -1908.46209694866616    5.88794e+00   5.71141e-03 
   @DF-RHF iter   2: -1908.78232664602410   -3.20230e-01   2.68923e-03 DIIS
   @DF-RHF iter   3: -1908.86007465891566   -7.77480e-02   1.14177e-03 DIIS
   @DF-RHF iter   4: -1908.87167776939691   -1.16031e-02   3.00247e-04 DIIS
   @DF-RHF iter   5: -1908.87279080066264   -1.11303e-03   1.01040e-04 DIIS
   @DF-RHF iter   6: -1908.87297041720126   -1.79617e-04   4.82944e-05 DIIS
   @DF-RHF iter   7: -1908.87300005141378   -2.96342e-05   1.44528e-05 DIIS
   @DF-RHF iter   8: -1908.87300363750501   -3.58609e-06   4.02914e-06 DIIS
   @DF-RHF iter   9: -1908.87300409828640   -4.60781e-07   1.54427e-06 DIIS
   @DF-RHF iter  10: -1908.87300418066820   -8.23818e-08   6.03862e-07 DIIS
   @DF-RHF iter  11: -1908.87300419738381   -1.67156e-08   2.82517e-07 DIIS
   @DF-RHF iter  12: -1908.87300419987150   -2.48770e-09   8.98179e-08 DIIS
   @DF-RHF iter  13: -1908.87300420026691   -3.95403e-10   4.84625e-08 DIIS
   @DF-RHF iter  14: -1908.87300420034103   -7.41238e-11   2.36592e-08 DIIS
   @DF-RHF iter  15: -1908.87300420035035   -9.32232e-12   9.30223e-09 DIIS

  ==> Post-Iterations <==

    Orbital Energies [Eh]
    ---------------------

    Doubly Occupied:                                                      

       1A   -104.849898     2A   -104.847647     3A   -104.847043  
       4A    -20.638872     5A    -20.613810     6A    -20.565652  
       7A    -11.403464     8A    -11.339845     9A    -11.337333  
      10A    -11.333995    11A    -11.329335    12A    -11.322747  
      13A    -11.284335    14A    -11.275980    15A    -10.582996  
      16A    -10.580921    17A    -10.580263    18A     -8.052434  
      19A     -8.050366    20A     -8.049710    21A     -8.048993  
      22A     -8.048914    23A     -8.046831    24A     -8.046808  
      25A     -8.046170    26A     -8.046165    27A     -1.499066  
      28A     -1.447076    29A     -1.384309    30A     -1.244848  
      31A     -1.187474    32A     -1.154896    33A     -1.115450  
      34A     -1.055927    35A     -1.022788    36A     -0.983490  
      37A     -0.884772    38A     -0.862125    39A     -0.819308  
      40A     -0.745190    41A     -0.738991    42A     -0.723629  
      43A     -0.712189    44A     -0.687337    45A     -0.676062  
      46A     -0.651434    47A     -0.632203    48A     -0.624580  
      49A     -0.609595    50A     -0.594594    51A     -0.575419  
      52A     -0.561283    53A     -0.556308    54A     -0.530112  
      55A     -0.501310    56A     -0.495492    57A     -0.486791  
      58A     -0.482718    59A     -0.470093    60A     -0.461020  
      61A     -0.460005    62A     -0.456386    63A     -0.367429  
      64A     -0.346721  

    Virtual:                                                              

      65A      0.095869    66A      0.104372    67A      0.148105  
      68A      0.181653    69A      0.202931    70A      0.212936  
      71A      0.233253    72A      0.243152    73A      0.281986  
      74A      0.298222    75A      0.307893    76A      0.319458  
      77A      0.326156    78A      0.384433    79A      0.411807  
      80A      0.426394    81A      0.433916    82A      0.464378  
      83A      0.474036    84A      0.483728    85A      0.516019  
      86A      0.531329    87A      0.549986    88A      0.575226  
      89A      0.585054    90A      0.597403    91A      0.601139  
      92A      0.620046    93A      0.623518    94A      0.643845  
      95A      0.653750    96A      0.660971    97A      0.674204  
      98A      0.685361    99A      0.701943   100A      0.719770  
     101A      0.736866   102A      0.755223   103A      0.765177  
     104A      0.789239   105A      0.799224   106A      0.810201  
     107A      0.813880   108A      0.843608   109A      0.859464  
     110A      0.876382   111A      0.889494   112A      0.914939  
     113A      0.940155   114A      0.946464   115A      0.956905  
     116A      0.963577   117A      0.984481   118A      1.004701  
     119A      1.021730   120A      1.043353   121A      1.053562  
     122A      1.071644   123A      1.081173   124A      1.095456  
     125A      1.107039   126A      1.114086   127A      1.115479  
     128A      1.123863   129A      1.129947   130A      1.136190  
     131A      1.138967   132A      1.147767   133A      1.168444  
     134A      1.189365   135A      1.198871   136A      1.200741  
     137A      1.218362   138A      1.228744   139A      1.248026  
     140A      1.258472   141A      1.285152   142A      1.291543  
     143A      1.295042   144A      1.320960   145A      1.326836  
     146A      1.346315   147A      1.364854   148A      1.414520  
     149A      1.419592   150A      1.433838   151A      1.435669  
     152A      1.473990   153A      1.515693   154A      1.531337  
     155A      1.562254   156A      1.605382   157A      1.613073  
     158A      1.638278   159A      1.662287   160A      1.671208  
     161A      1.681104   162A      1.688154   163A      1.750494  
     164A      1.778648   165A      1.786113   166A      1.794019  
     167A      1.822865   168A      1.857438   169A      1.907157  
     170A      1.955703   171A      2.004052   172A      2.023827  
     173A      2.053686   174A      2.062689   175A      2.070544  
     176A      2.076763   177A      2.144695   178A      2.155368  
     179A      2.191323   180A      2.211905   181A      2.221555  
     182A      2.236317   183A      2.258667   184A      2.288993  
     185A      2.332137   186A      2.359245   187A      2.384723  
     188A      2.402182   189A      2.414663   190A      2.423632  
     191A      2.456731   192A      2.484655   193A      2.518056  
     194A      2.542354   195A      2.582707   196A      2.596225  
     197A      2.619024   198A      2.713107   199A      2.776029  
     200A      2.787124   201A      2.831684   202A      2.869027  
     203A      2.885608   204A      2.965963   205A      3.001767  
     206A      3.016156   207A      3.054932   208A      3.070558  
     209A      3.085522   210A      3.123377   211A      3.170728  
     212A      3.199961   213A      3.237063   214A      3.325103  
     215A      3.469632   216A      3.490535   217A      3.514865  
     218A      3.710836   219A      4.242959   220A      4.425240  
     221A      4.454619   222A      4.478358   223A      4.518824  
     224A      4.590010   225A      4.631007   226A      4.667832  
     227A      4.725378   228A      4.748160   229A      4.802063  
     230A      4.880183   231A      4.896989   232A      5.148242  

    Final Occupation by Irrep:
              A 
    DOCC [    64 ]

  Energy converged.

  @DF-RHF Final Energy: -1908.87300420035035

   => Energetics <=

    Nuclear Repulsion Energy =           1163.3286598066381430
    One-Electron Energy =               -4944.4454336028475154
    Two-Electron Energy =                1872.2437695958592485
    Total Energy =                      -1908.8730042003503513



Properties will be evaluated at   0.000000,   0.000000,   0.000000 [a0]

Properties computed using the SCF density matrix

  Nuclear Dipole Moment: [e a0]
     X:   -11.3991      Y:     6.9545      Z:     4.4548

  Electronic Dipole Moment: [e a0]
     X:    10.4043      Y:    -6.6267      Z:    -5.0950

  Dipole Moment: [e a0]
     X:    -0.9948      Y:     0.3278      Z:    -0.6403     Total:     1.2276

  Dipole Moment: [D]
     X:    -2.5285      Y:     0.8332      Z:    -1.6274     Total:     3.1203


*** tstop() called on wr53 at Wed Sep 26 15:39:48 2018
Module time:
	user time   =      92.36 seconds =       1.54 minutes
	system time =       6.04 seconds =       0.10 minutes
	total time  =         14 seconds =       0.23 minutes
Total time:
	user time   =      92.36 seconds =       1.54 minutes
	system time =       6.04 seconds =       0.10 minutes
	total time  =         14 seconds =       0.23 minutes

*** tstart() called on wr53
*** at Wed Sep 26 15:39:48 2018


         ------------------------------------------------------------
                                   SCF GRAD                          
                          Rob Parrish, Justin Turney,                
                       Andy Simmonett, and Alex Sokolov              
         ------------------------------------------------------------

  ==> Geometry <==

    Molecular point group: c1
    Full point group: C1

    Geometry (in Angstrom), charge = 0, multiplicity = 1:

       Center              X                  Y                   Z               Mass       
    ------------   -----------------  -----------------  -----------------  -----------------
         C           -0.334250943740    -1.135209561174     0.223010606265    12.000000000000
         O           -0.977250943740     0.884790438826     1.331010606265    15.994914619560
         C           -0.158250943740     0.218790438826     0.482010606265    12.000000000000
         C            0.914749056260     0.876790438826    -0.087989393735    12.000000000000
         H            1.054749056260     1.916790438826     0.128010606265     1.007825032070
         O           -2.690250943740     2.264790438826     2.963010606265    15.994914619560
         C            1.797749056260     0.208790438826    -0.917989393735    12.000000000000
         C            1.608749056260    -1.139209561174    -1.183989393735    12.000000000000
         C            0.540749056260    -1.805209561174    -0.606989393735    12.000000000000
         H            0.398749056260    -2.850209561174    -0.801989393735     1.007825032070
         C           -2.205250943740     1.344790438826     0.841010606265    12.000000000000
         H           -2.766250943740     0.476790438826     0.525010606265     1.007825032070
         H           -2.086250943740     1.992790438826    -0.016989393735     1.007825032070
         C           -3.063250943740     2.080790438826     1.851010606265    12.000000000000
         O           -4.223250943740     2.515790438826     1.389010606265    15.994914619560
         H           -4.667250943740     2.977790438826     2.095010606265     1.007825032070
         CL           2.673749056260    -2.031209561174    -2.216989393735    34.968852682000
         CL          -1.641250943740    -2.010209561174     0.955010606265    34.968852682000
         CL           3.117749056260     1.096790438826    -1.598989393735    34.968852682000

  Nuclear repulsion = 1163.328659806638143

  ==> Basis Set <==

  Basis Set: 6-31G(D)
    Blend: 6-31G(D)
    Number of shells: 100
    Number of basis function: 232
    Number of Cartesian functions: 232
    Spherical Harmonics?: false
    Max angular momentum: 2

  ==> DFJKGrad: Density-Fitted SCF Gradients <==

    Gradient:                    1
    J tasked:                  Yes
    K tasked:                  Yes
    wK tasked:                  No
    OpenMP threads:             16
    Integrals threads:          16
    Memory (MB):             78678
    Schwarz Cutoff:          0E+00
    Fitting Condition:       1E-12

   => Auxiliary Basis Set <=

  Basis Set: (6-31G(D) AUX)
    Blend: CC-PVDZ-JKFIT
    Number of shells: 417
    Number of basis function: 1406
    Number of Cartesian functions: 1406
    Spherical Harmonics?: false
    Max angular momentum: 3


  -Total Gradient:
     Atom            X                  Y                   Z
    ------   -----------------  -----------------  -----------------
       1        0.000019064654    -0.000228571411     0.000399002099
       2        0.000230316203    -0.014993732351    -0.014215626253
       3        0.006461024416     0.000749496011    -0.000780789278
       4        0.002294197056    -0.000396370474     0.000102655207
       5       -0.000677083931    -0.000777428070    -0.000267416423
       6        0.008995241047    -0.002355340386     0.001425659155
       7       -0.000493875947     0.000294744121     0.000358838527
       8        0.000214774594    -0.000666587713    -0.000264434312
       9       -0.000350071715     0.000560704950     0.000017254811
      10       -0.000079758678    -0.000462704970    -0.000070802838
      11        0.018163114101     0.013345249446     0.022912525448
      12        0.006525745280    -0.002713873438     0.005330951257
      13       -0.003769242898    -0.001037236205     0.002484255190
      14       -0.033320778793     0.001475556662    -0.027151555576
      15       -0.002577024808     0.005388666692     0.009791039226
      16       -0.000915499674     0.000969884515     0.000035802831
      17       -0.000073630105     0.000010916101     0.000010338578
      18       -0.000604897148     0.000928685249    -0.000123987396
      19       -0.000041613768    -0.000092058770     0.000006289684


*** tstop() called on wr53 at Wed Sep 26 15:39:57 2018
Module time:
	user time   =      66.49 seconds =       1.11 minutes
	system time =       2.17 seconds =       0.04 minutes
	total time  =          9 seconds =       0.15 minutes
Total time:
	user time   =     158.86 seconds =       2.65 minutes
	system time =       8.21 seconds =       0.14 minutes
	total time  =         23 seconds =       0.38 minutes

			-----------------------------------------
			 OPTKING 2.0: for geometry optimizations 
			  - R.A. King,  Bethel University        
			-----------------------------------------

	Internal coordinates to be generated automatically.
	Detected frag 1 with atoms:  1 2 3 4 5 6 7 8 9 10 11 12 13 14 15 16 17 18 19
	---Fragment 1 Bond Connectivity---
	 1 : 3 9 18
	 2 : 3 11
	 3 : 1 2 4
	 4 : 3 5 7
	 5 : 4
	 6 : 14
	 7 : 4 8 19
	 8 : 7 9 17
	 9 : 1 8 10
	 10 : 9
	 11 : 2 12 13 14
	 12 : 11
	 13 : 11
	 14 : 6 11 15
	 15 : 14 16
	 16 : 15
	 17 : 8
	 18 : 1
	 19 : 7

	---Fragment 1 Geometry and Gradient---
	 C          -0.6316427433       -2.1452351741        0.4214289706
	 O          -1.8467366468        1.6720116144        2.5152455258
	 C          -0.2990509439        0.4134540099        0.9108680390
	 C           1.7286251966        1.6568938053       -0.1662758568
	 H           1.9931868553        3.6222089835        0.2419049879
	 O          -5.0838375124        4.2798336778        5.5992785747
	 C           3.3972533720        0.3945567485       -1.7347485471
	 C           3.0400951329       -2.1527940786       -2.2374156984
	 C           1.0218676229       -3.4113516831       -1.1470437197
	 H           0.7535265121       -5.3861154920       -1.5155403156
	 C          -4.1673203380        2.5412856355        1.5892797207
	 H          -5.2274566985        0.9010033522        0.9921262627
	 H          -3.9424429281        3.7658281696       -0.0321053013
	 C          -5.7887053600        3.9321240693        3.4979031149
	 O          -7.9807876741        4.7541549371        2.6248496415
	 H          -8.8198260771        5.6272084105        3.9589962913
	 CL          5.0526534644       -3.8384297891       -4.1895027937
	 CL         -3.1015147990       -3.7987455403        1.8047084998
	 CL          5.8916918674        2.0726335545       -3.0216520435
	             0.0000190647       -0.0002285714        0.0003990021
	             0.0002303162       -0.0149937324       -0.0142156263
	             0.0064610244        0.0007494960       -0.0007807893
	             0.0022941971       -0.0003963705        0.0001026552
	            -0.0006770839       -0.0007774281       -0.0002674164
	             0.0089952410       -0.0023553404        0.0014256592
	            -0.0004938759        0.0002947441        0.0003588385
	             0.0002147746       -0.0006665877       -0.0002644343
	            -0.0003500717        0.0005607050        0.0000172548
	            -0.0000797587       -0.0004627050       -0.0000708028
	             0.0181631141        0.0133452494        0.0229125254
	             0.0065257453       -0.0027138734        0.0053309513
	            -0.0037692429       -0.0010372362        0.0024842552
	            -0.0333207788        0.0014755567       -0.0271515556
	            -0.0025770248        0.0053886667        0.0097910392
	            -0.0009154997        0.0009698845        0.0000358028
	            -0.0000736301        0.0000109161        0.0000103386
	            -0.0006048971        0.0009286852       -0.0001239874
	            -0.0000416138       -0.0000920588        0.0000062897

	Previous optimization step data not found.  Starting new optimization.

	---Fragment 1 Intrafragment Coordinates---
	 - Coordinate -           - BOHR/RAD -       - ANG/DEG -
	 R(1,3)           =         2.626225	       1.389738
	 R(1,9)           =         2.607154	       1.379647
	 R(1,18)          =         3.278388	       1.734848
	 R(2,3)           =         2.559946	       1.354665
	 R(2,11)          =         2.645403	       1.399887
	 R(3,4)           =         2.611102	       1.381736
	 R(4,5)           =         2.024616	       1.071380
	 R(4,7)           =         2.614942	       1.383768
	 R(6,14)          =         2.243551	       1.187236
	 R(7,8)           =         2.620922	       1.386932
	 R(7,19)          =         3.270212	       1.730522
	 R(8,9)           =         2.616509	       1.384597
	 R(8,17)          =         3.271453	       1.731178
	 R(9,10)          =         2.026694	       1.072480
	 R(11,12)         =         2.042304	       1.080741
	 R(11,13)         =         2.044251	       1.081771
	 R(11,14)         =         2.864640	       1.515902
	 R(14,15)         =         2.498636	       1.322221
	 R(15,16)         =         1.801709	       0.953423
	 B(1,3,2)         =         2.116742	     121.280359
	 B(1,3,4)         =         2.077653	     119.040736
	 B(1,9,8)         =         2.101702	     120.418662
	 B(1,9,10)        =         2.092779	     119.907400
	 B(2,3,4)         =         2.087373	     119.597676
	 B(2,11,12)       =         1.868978	     107.084543
	 B(2,11,13)       =         1.958389	     112.207434
	 B(2,11,14)       =         2.007362	     115.013379
	 B(3,1,9)         =         2.100111	     120.327517
	 B(3,1,18)        =         2.103857	     120.542112
	 B(3,2,11)        =         2.062947	     118.198179
	 B(3,4,5)         =         2.072102	     118.722694
	 B(3,4,7)         =         2.109569	     120.869400
	 B(4,7,8)         =         2.091246	     119.819562
	 B(4,7,19)        =         2.065833	     118.363485
	 B(5,4,7)         =         2.101505	     120.407344
	 B(6,14,11)       =         2.119371	     121.431016
	 B(6,14,15)       =         2.155451	     123.498235
	 B(7,8,9)         =         2.085977	     119.517698
	 B(7,8,17)        =         2.131050	     122.100190
	 B(8,7,19)        =         2.126107	     121.816935
	 B(8,9,10)        =         2.088677	     119.672381
	 B(9,1,18)        =         2.079119	     119.124721
	 B(9,8,17)        =         2.066150	     118.381666
	 B(11,14,15)      =         2.008088	     115.054943
	 B(12,11,13)      =         1.882096	     107.836147
	 B(12,11,14)      =         1.866021	     106.915105
	 B(13,11,14)      =         1.875359	     107.450136
	 B(14,15,16)      =         1.885189	     108.013376
	 D(1,3,2,11)      =        -1.435595	     -82.253555
	 D(1,3,4,5)       =        -3.124252	    -179.006429
	 D(1,3,4,7)       =         0.012597	       0.721764
	 D(1,9,8,7)       =         0.004296	       0.246162
	 D(1,9,8,17)      =        -3.141446	    -179.991569
	 D(2,3,1,9)       =        -3.100111	    -177.623262
	 D(2,3,1,18)      =         0.026259	       1.504504
	 D(2,3,4,5)       =        -0.039113	      -2.241038
	 D(2,3,4,7)       =         3.097735	     177.487155
	 D(2,11,14,6)     =         0.024248	       1.389297
	 D(2,11,14,15)    =         3.141444	     179.991462
	 D(3,1,9,8)       =         0.007615	       0.436314
	 D(3,1,9,10)      =         3.141258	     179.980825
	 D(3,2,11,12)     =         1.071858	      61.412957
	 D(3,2,11,13)     =        -0.990021	     -56.724052
	 D(3,2,11,14)     =        -3.140680	    -179.947718
	 D(3,4,7,8)       =        -0.000841	      -0.048174
	 D(3,4,7,19)      =         3.139919	     179.904087
	 D(4,3,1,9)       =        -0.015957	      -0.914243
	 D(4,3,1,18)      =         3.110413	     178.213523
	 D(4,3,2,11)      =         1.763751	     101.055460
	 D(4,7,8,9)       =        -0.007674	      -0.439673
	 D(4,7,8,17)      =         3.138228	     179.807230
	 D(5,4,7,8)       =         3.135928	     179.675447
	 D(5,4,7,19)      =        -0.006498	      -0.372292
	 D(6,14,11,12)    =         2.096547	     120.123293
	 D(6,14,11,13)    =        -2.170035	    -124.333862
	 D(6,14,15,16)    =        -0.001203	      -0.068909
	 D(7,8,9,10)      =        -3.129365	    -179.299418
	 D(8,9,1,18)      =        -3.118969	    -178.703741
	 D(9,8,7,19)      =         3.134782	     179.609763
	 D(10,9,1,18)     =         0.014674	       0.840770
	 D(10,9,8,17)     =         0.008078	       0.462851
	 D(11,14,15,16)   =        -3.117832	    -178.638605
	 D(12,11,14,15)   =        -1.069443	     -61.274542
	 D(13,11,14,15)   =         0.947161	      54.268304
	 D(17,8,7,19)     =        -0.002502	      -0.143334
	 R(11,18)         =         6.432600	       3.403985
	 R(14,18)         =         8.357885	       4.422802

	Current energy   :     -1908.8730042004

	Generating empirical Hessian (Schlegel '84) for each fragment.
	Taking RFO optimization step.
	Going to follow RFO solution 1.
	Using RFO vector 1.
	Norm of target step-size    0.30035
	Projected energy change by RFO approximation:        -0.0148784710

	Back-transformation to cartesian coordinates...
	Could not converge backtransformation.
	Using first guess instead.

	--- Internal Coordinate Step in ANG or DEG, aJ/ANG or AJ/DEG ---
	 ---------------------------------------------------------------------------
	   Coordinate                Previous        Force       Change         New 
	   ----------                --------       ------       ------       ------
	    1 R(1,3)          =      1.389738    -0.001777    -0.000696     1.389042
	    2 R(1,9)          =      1.379647     0.003241     0.000573     1.380220
	    3 R(1,18)         =      1.734848    -0.010045    -0.000406     1.734442
	    4 R(2,3)          =      1.354665    -0.034756    -0.005029     1.349637
	    5 R(2,11)         =      1.399887    -0.050696    -0.005139     1.394748
	    6 R(3,4)          =      1.381736    -0.001474    -0.000043     1.381693
	    7 R(4,5)          =      1.071380     0.007391     0.001537     1.072917
	    8 R(4,7)          =      1.383768    -0.000043     0.000391     1.384158
	    9 R(6,14)         =      1.187236    -0.031277     0.000952     1.188188
	   10 R(7,8)          =      1.386932    -0.006521     0.000120     1.387053
	   11 R(7,19)         =      1.730522     0.000671     0.000609     1.731130
	   12 R(8,9)          =      1.384597    -0.000149     0.000665     1.385262
	   13 R(8,17)         =      1.731178     0.000470     0.000448     1.731626
	   14 R(9,10)         =      1.072480    -0.003907    -0.000217     1.072264
	   15 R(11,12)        =      1.080741     0.022792     0.009920     1.090661
	   16 R(11,13)        =      1.081771     0.024768     0.007818     1.089589
	   17 R(11,14)        =      1.515902    -0.041149    -0.006153     1.509750
	   18 R(14,15)        =      1.322221    -0.014190    -0.000489     1.321732
	   19 R(15,16)        =      0.953423    -0.007603    -0.000703     0.952721
	   20 B(1,3,2)        =    121.280359     0.000448     0.577844   121.858203
	   21 B(1,3,4)        =    119.040736    -0.000019     0.125008   119.165745
	   22 B(1,9,8)        =    120.418662     0.000020    -0.025491   120.393171
	   23 B(1,9,10)       =    119.907400    -0.000008     0.018189   119.925589
	   24 B(2,3,4)        =    119.597676    -0.000428    -0.680751   118.916926
	   25 B(2,11,12)      =    107.084543     0.001223     6.313955   113.398498
	   26 B(2,11,13)      =    112.207434     0.000298    -1.166576   111.040858
	   27 B(2,11,14)      =    115.013379    -0.002309    -8.063795   106.949584
	   28 B(3,1,9)        =    120.327517    -0.000026    -0.072895   120.254622
	   29 B(3,1,18)       =    120.542112     0.000070    -0.115284   120.426828
	   30 B(3,2,11)       =    118.198179    -0.000813    -2.463331   115.734849
	   31 B(3,4,5)        =    118.722694     0.000007     0.149752   118.872446
	   32 B(3,4,7)        =    120.869400     0.000047    -0.021798   120.847602
	   33 B(4,7,8)        =    119.819562    -0.000028    -0.071211   119.748351
	   34 B(4,7,19)       =    118.363485     0.000006     0.004954   118.368439
	   35 B(5,4,7)        =    120.407344    -0.000055    -0.131067   120.276277
	   36 B(6,14,11)      =    121.431016     0.001691     4.606495   126.037511
	   37 B(6,14,15)      =    123.498235     0.000239     0.772306   124.270541
	   38 B(7,8,9)        =    119.517698     0.000006     0.070390   119.588088
	   39 B(7,8,17)       =    122.100190    -0.000007    -0.038936   122.061254
	   40 B(8,7,19)       =    121.816935     0.000021     0.066268   121.883203
	   41 B(8,9,10)       =    119.672381    -0.000012     0.007693   119.680073
	   42 B(9,1,18)       =    119.124721    -0.000044     0.181840   119.306561
	   43 B(9,8,17)       =    118.381666     0.000001    -0.031666   118.350000
	   44 B(11,14,15)     =    115.054943    -0.001927    -5.448371   109.606572
	   45 B(12,11,13)     =    107.836147    -0.000278     0.134274   107.970421
	   46 B(12,11,14)     =    106.915105     0.000482     2.255194   109.170299
	   47 B(13,11,14)     =    107.450136     0.000681     0.735975   108.186112
	   48 B(14,15,16)     =    108.013376    -0.000119    -0.568581   107.444795
	   49 D(1,3,2,11)     =    -82.253555    -0.000010    -2.389420   -84.642976
	   50 D(1,3,4,5)      =   -179.006429    -0.000001     0.074454  -178.931975
	   51 D(1,3,4,7)      =      0.721764    -0.000005    -0.349276     0.372487
	   52 D(1,9,8,7)      =      0.246162    -0.000000     0.049370     0.295532
	   53 D(1,9,8,17)     =   -179.991569    -0.000000    -0.001676  -179.993245
	   54 D(2,3,1,9)      =   -177.623262     0.000002    -0.026429  -177.649692
	   55 D(2,3,1,18)     =      1.504504    -0.000000    -0.422439     1.082064
	   56 D(2,3,4,5)      =     -2.241038     0.000009     0.565330    -1.675708
	   57 D(2,3,4,7)      =    177.487155     0.000005     0.141600   177.628755
	   58 D(2,11,14,6)    =      1.389297    -0.000103    -5.581596    -4.192299
	   59 D(2,11,14,15)   =    179.991462    -0.000079    -0.926299   179.065164
	   60 D(3,1,9,8)      =      0.436314    -0.000002    -0.290585     0.145728
	   61 D(3,1,9,10)     =    179.980825    -0.000002    -0.229235   179.751590
	   62 D(3,2,11,12)    =     61.412957     0.000076     0.894817    62.307774
	   63 D(3,2,11,13)    =    -56.724052    -0.000061    -2.746990   -59.471042
	   64 D(3,2,11,14)    =   -179.947718     0.000091     2.648240  -177.299477
	   65 D(3,4,7,8)      =     -0.048174     0.000002     0.113475     0.065300
	   66 D(3,4,7,19)     =    179.904087     0.000002     0.191497   180.095584
	   67 D(4,3,1,9)      =     -0.914243     0.000005     0.436876    -0.477367
	   68 D(4,3,1,18)     =    178.213523     0.000003     0.040866   178.254389
	   69 D(4,3,2,11)     =    101.055460    -0.000016    -2.877577    98.177884
	   70 D(4,7,8,9)      =     -0.439673     0.000000     0.039762    -0.399911
	   71 D(4,7,8,17)     =    179.807230     0.000000     0.092739   179.899969
	   72 D(5,4,7,8)      =    179.675447    -0.000002    -0.315423   179.360023
	   73 D(5,4,7,19)     =     -0.372292    -0.000002    -0.237401    -0.609693
	   74 D(6,14,11,12)   =    120.123293     0.000007    -1.257735   118.865558
	   75 D(6,14,11,13)   =   -124.333862     0.000064     0.459057  -123.874805
	   76 D(6,14,15,16)   =     -0.068909     0.000009     1.539320     1.470411
	   77 D(7,8,9,10)     =   -179.299418    -0.000001    -0.011878  -179.311295
	   78 D(8,9,1,18)     =   -178.703741    -0.000000     0.103550  -178.600191
	   79 D(9,8,7,19)     =    179.609763     0.000000    -0.041056   179.568708
	   80 D(10,9,1,18)    =      0.840770     0.000000     0.164900     1.005671
	   81 D(10,9,8,17)    =      0.462851    -0.000001    -0.062924     0.399927
	   82 D(11,14,15,16)  =   -178.638605    -0.000021    -3.078383  -181.716988
	   83 D(12,11,14,15)  =    -61.274542     0.000032     3.397562   -57.876980
	   84 D(13,11,14,15)  =     54.268304     0.000089     5.114354    59.382658
	   85 D(17,8,7,19)    =     -0.143334     0.000000     0.011921    -0.131413
	   86 R(11,18)        =      3.403985     0.038267     0.029005     3.432990
	   87 R(14,18)        =      4.422802    -0.030301     0.003782     4.426585
	 ---------------------------------------------------------------------------
	Successfully symmetrized geometry.

  ==> Convergence Check <==

  Measures of convergence in internal coordinates in au.
  Criteria marked as inactive (o), active & met (*), and active & unmet ( ).
  --------------------------------------------------------------------------------------------- ~
   Step     Total Energy     Delta E     MAX Force     RMS Force      MAX Disp      RMS Disp    ~
  --------------------------------------------------------------------------------------------- ~
    Convergence Criteria             o    1.50e-05 *    1.00e-05 *    6.00e-05 *    4.00e-05 *  ~
  --------------------------------------------------------------------------------------------- ~
      1   -1908.87300420   -1.91e+03 o    3.03e-02      5.84e-03      1.41e-01      3.23e-02    ~
  ---------------------------------------------------------------------------------------------

	Writing optimization data to binary file.
	Structure for next step:
	Cartesian Geometry (in Angstrom)
	    C    -0.3483399951  -1.1588867705   0.2452328790
	    O    -1.0341524929   0.8588279614   1.3353937589
	    C    -0.2061531585   0.1995486916   0.4979651554
	    C     0.8461372847   0.8850929054  -0.0780461636
	    H     0.9615241126   1.9304599796   0.1341924047
	    O    -2.6181598286   2.1829320537   2.9859037847
	    C     1.7480497408   0.2370199002  -0.9041513486
	    C     1.5960928990  -1.1176425017  -1.1604988975
	    C     0.5464968032  -1.8102080338  -0.5794211341
	    H     0.4340782000  -2.8598043417  -0.7677260247
	    C    -2.2273548068   1.3131482818   0.7739821461
	    H    -2.8652310089   0.5097702029   0.4035244846
	    H    -2.0354870150   1.9978697359  -0.0515764581
	    C    -2.9613683271   2.0710316971   1.8538807490
	    O    -4.0966938499   2.5442968289   1.3701130003
	    H    -4.5456445949   2.9919097662   2.0812827832
	   CL     2.6871864316  -1.9871050647  -2.1862082038
	   CL    -1.6306657002  -2.0608649226   0.9870982078
	   CL     3.0439173748   1.1576219679  -1.5897396044
			--------------------------
			 OPTKING Finished Execution 
			--------------------------

    Structure for next step:
    Molecular point group: c1
    Full point group: C1

    Geometry (in Angstrom), charge = 0, multiplicity = 1:

    C           -0.345393878991    -1.160113742761     0.232978123077
    O           -1.031206376834     0.857600989225     1.323139003057
    C           -0.203207042379     0.198321719366     0.485710399553
    C            0.849083400734     0.883865933204    -0.090300919447
    H            0.964470228725     1.929233007369     0.121937648803
    O           -2.615213712492     2.181705081527     2.973649028799
    C            1.750995856926     0.235792927960    -0.916406104467
    C            1.599039015111    -1.118869473952    -1.172753653391
    C            0.549442919241    -1.811435005983    -0.591675889996
    H            0.437024316077    -2.861031313898    -0.779980780591
    C           -2.224408690716     1.311921309562     0.761727390218
    H           -2.862284892800     0.508543230677     0.391269728700
    H           -2.032540898889     1.996642763678    -0.063831213953
    C           -2.958422211002     2.069804724929     1.841625993155
    O           -4.093747733840     2.543069856716     1.357858244453
    H           -4.542698478793     2.990682793979     2.069028027331
    CL           2.690132547649    -1.988332036900    -2.198462959659
    CL          -1.627719584162    -2.062091894851     0.974843451899
    CL           3.046863490857     1.156394995713    -1.601994360260

gradient() will perform analytic gradient computation.

*** tstart() called on wr53
*** at Wed Sep 26 15:39:57 2018

   => Loading Basis Set <=

    Name: 6-31G(D)
    Role: ORBITAL
    Keyword: BASIS
    atoms 1, 3-4, 7-9, 11, 14 entry C          line   111 file /usr/local/hpc1/software_molmod/psi4/psi4conda/share/psi4/basis/6-31g_d_.gbs 
    atoms 2, 6, 15            entry O          line   145 file /usr/local/hpc1/software_molmod/psi4/psi4conda/share/psi4/basis/6-31g_d_.gbs 
    atoms 5, 10, 12-13, 16    entry H          line    44 file /usr/local/hpc1/software_molmod/psi4/psi4conda/share/psi4/basis/6-31g_d_.gbs 
    atoms 17-19               entry CL         line   340 file /usr/local/hpc1/software_molmod/psi4/psi4conda/share/psi4/basis/6-31g_d_.gbs 


         ---------------------------------------------------------
                                   SCF
            by Justin Turney, Rob Parrish, Andy Simmonett
                             and Daniel Smith
                              RHF Reference
                       16 Threads, 104904 MiB Core
         ---------------------------------------------------------

  ==> Geometry <==

    Molecular point group: c1
    Full point group: C1

    Geometry (in Angstrom), charge = 0, multiplicity = 1:

       Center              X                  Y                   Z               Mass       
    ------------   -----------------  -----------------  -----------------  -----------------
         C           -0.345393878991    -1.160113742761     0.232978123077    12.000000000000
         O           -1.031206376834     0.857600989225     1.323139003057    15.994914619560
         C           -0.203207042379     0.198321719366     0.485710399553    12.000000000000
         C            0.849083400734     0.883865933204    -0.090300919447    12.000000000000
         H            0.964470228725     1.929233007369     0.121937648803     1.007825032070
         O           -2.615213712492     2.181705081527     2.973649028799    15.994914619560
         C            1.750995856926     0.235792927960    -0.916406104467    12.000000000000
         C            1.599039015111    -1.118869473952    -1.172753653391    12.000000000000
         C            0.549442919241    -1.811435005983    -0.591675889996    12.000000000000
         H            0.437024316077    -2.861031313898    -0.779980780591     1.007825032070
         C           -2.224408690716     1.311921309562     0.761727390218    12.000000000000
         H           -2.862284892800     0.508543230677     0.391269728700     1.007825032070
         H           -2.032540898889     1.996642763678    -0.063831213953     1.007825032070
         C           -2.958422211002     2.069804724929     1.841625993155    12.000000000000
         O           -4.093747733840     2.543069856716     1.357858244453    15.994914619560
         H           -4.542698478793     2.990682793979     2.069028027331     1.007825032070
         CL           2.690132547649    -1.988332036900    -2.198462959659    34.968852682000
         CL          -1.627719584162    -2.062091894851     0.974843451899    34.968852682000
         CL           3.046863490857     1.156394995713    -1.601994360260    34.968852682000

  Running in c1 symmetry.

  Rotational constants: A =      0.02776  B =      0.00811  C =      0.00656 [cm^-1]
  Rotational constants: A =    832.34133  B =    243.22500  C =    196.76315 [MHz]
  Nuclear repulsion = 1168.087930892940221

  Charge       = 0
  Multiplicity = 1
  Electrons    = 128
  Nalpha       = 64
  Nbeta        = 64

  ==> Algorithm <==

  SCF Algorithm Type is DF.
  DIIS enabled.
  MOM disabled.
  Fractional occupation disabled.
  Guess Type is READ.
  Energy threshold   = 1.00e-08
  Density threshold  = 1.00e-08
  Integral threshold = 0.00e+00

  ==> Primary Basis <==

  Basis Set: 6-31G(D)
    Blend: 6-31G(D)
    Number of shells: 100
    Number of basis function: 232
    Number of Cartesian functions: 232
    Spherical Harmonics?: false
    Max angular momentum: 2

   => Loading Basis Set <=

    Name: (6-31G(D) AUX)
    Role: JKFIT
    Keyword: DF_BASIS_SCF
    atoms 1, 3-4, 7-9, 11, 14 entry C          line   121 file /usr/local/hpc1/software_molmod/psi4/psi4conda/share/psi4/basis/cc-pvdz-jkfit.gbs 
    atoms 2, 6, 15            entry O          line   221 file /usr/local/hpc1/software_molmod/psi4/psi4conda/share/psi4/basis/cc-pvdz-jkfit.gbs 
    atoms 5, 10, 12-13, 16    entry H          line    51 file /usr/local/hpc1/software_molmod/psi4/psi4conda/share/psi4/basis/cc-pvdz-jkfit.gbs 
    atoms 17-19               entry CL         line   667 file /usr/local/hpc1/software_molmod/psi4/psi4conda/share/psi4/basis/cc-pvdz-jkfit.gbs 

  Reading orbitals from file 180, no projection.

  ==> Pre-Iterations <==

   -------------------------------------------------------
    Irrep   Nso     Nmo     Nalpha   Nbeta   Ndocc  Nsocc
   -------------------------------------------------------
     A        232     232       0       0       0       0
   -------------------------------------------------------
    Total     232     232      64      64      64       0
   -------------------------------------------------------

  ==> Integral Setup <==

  ==> DiskDFJK: Density-Fitted J/K Matrices <==

    J tasked:                  Yes
    K tasked:                  Yes
    wK tasked:                  No
    OpenMP threads:             16
    Integrals threads:          16
    Memory (MB):             78678
    Algorithm:                Core
    Integral Cache:           NONE
    Schwarz Cutoff:          1E-12
    Fitting Condition:       1E-12

   => Auxiliary Basis Set <=

  Basis Set: (6-31G(D) AUX)
    Blend: CC-PVDZ-JKFIT
    Number of shells: 417
    Number of basis function: 1406
    Number of Cartesian functions: 1406
    Spherical Harmonics?: false
    Max angular momentum: 3

  Minimum eigenvalue in the overlap matrix is 3.6916070512E-04.
  Using Symmetric Orthogonalization.

  SCF Guess: Orbitals guess was supplied from a previous computation.

  ==> Iterations <==

                           Total Energy        Delta E     RMS |[F,P]|

   @DF-RHF iter   0: -1908.87994763118354   -1.90888e+03   1.80231e-03 
   @DF-RHF iter   1: -1908.87691792110627    3.02971e-03   2.89996e-04 
   @DF-RHF iter   2: -1908.87784107052994   -9.23149e-04   1.44700e-04 DIIS
   @DF-RHF iter   3: -1908.87800134303598   -1.60273e-04   6.64216e-05 DIIS
   @DF-RHF iter   4: -1908.87805489237167   -5.35493e-05   1.26188e-05 DIIS
   @DF-RHF iter   5: -1908.87805884777435   -3.95540e-06   6.20139e-06 DIIS
   @DF-RHF iter   6: -1908.87806007257132   -1.22480e-06   3.15842e-06 DIIS
   @DF-RHF iter   7: -1908.87806024076554   -1.68194e-07   1.05519e-06 DIIS
   @DF-RHF iter   8: -1908.87806027087845   -3.01129e-08   3.43436e-07 DIIS
   @DF-RHF iter   9: -1908.87806027594729   -5.06884e-09   2.29030e-07 DIIS
   @DF-RHF iter  10: -1908.87806027681631   -8.69022e-10   7.15982e-08 DIIS
   @DF-RHF iter  11: -1908.87806027694205   -1.25738e-10   2.46481e-08 DIIS
   @DF-RHF iter  12: -1908.87806027695569   -1.36424e-11   7.14296e-09 DIIS

  ==> Post-Iterations <==

    Orbital Energies [Eh]
    ---------------------

    Doubly Occupied:                                                      

       1A   -104.849254     2A   -104.847544     3A   -104.846660  
       4A    -20.635054     5A    -20.615010     6A    -20.568827  
       7A    -11.400664     8A    -11.337236     9A    -11.337092  
      10A    -11.333636    11A    -11.328761    12A    -11.323252  
      13A    -11.284267    14A    -11.275344    15A    -10.582311  
      16A    -10.580807    17A    -10.579876    18A     -8.051756  
      19A     -8.050249    20A     -8.049323    21A     -8.048306  
      22A     -8.048231    23A     -8.046719    24A     -8.046695  
      25A     -8.045786    26A     -8.045780    27A     -1.498586  
      28A     -1.452841    29A     -1.384143    30A     -1.244334  
      31A     -1.187078    32A     -1.154466    33A     -1.114932  
      34A     -1.057213    35A     -1.022734    36A     -0.982741  
      37A     -0.884428    38A     -0.858623    39A     -0.819893  
      40A     -0.751374    41A     -0.739988    42A     -0.721486  
      43A     -0.704207    44A     -0.686902    45A     -0.674530  
      46A     -0.651844    47A     -0.631657    48A     -0.622076  
      49A     -0.609192    50A     -0.593521    51A     -0.577412  
      52A     -0.561759    53A     -0.556781    54A     -0.529965  
      55A     -0.501065    56A     -0.494738    57A     -0.487115  
      58A     -0.482640    59A     -0.471362    60A     -0.464235  
      61A     -0.460260    62A     -0.457611    63A     -0.367054  
      64A     -0.346453  

    Virtual:                                                              

      65A      0.095834    66A      0.105542    67A      0.148649  
      68A      0.178626    69A      0.203504    70A      0.217868  
      71A      0.233473    72A      0.238644    73A      0.282318  
      74A      0.298678    75A      0.304886    76A      0.321194  
      77A      0.322966    78A      0.380779    79A      0.418780  
      80A      0.432282    81A      0.441250    82A      0.466040  
      83A      0.476693    84A      0.482479    85A      0.509003  
      86A      0.530338    87A      0.545327    88A      0.573605  
      89A      0.584726    90A      0.597679    91A      0.600781  
      92A      0.619274    93A      0.624499    94A      0.640424  
      95A      0.653046    96A      0.660590    97A      0.672135  
      98A      0.684930    99A      0.703158   100A      0.719311  
     101A      0.738477   102A      0.759618   103A      0.771149  
     104A      0.783832   105A      0.800344   106A      0.808701  
     107A      0.813915   108A      0.849455   109A      0.856933  
     110A      0.877335   111A      0.890033   112A      0.916197  
     113A      0.941033   114A      0.949412   115A      0.963495  
     116A      0.968533   117A      0.983308   118A      1.008033  
     119A      1.018632   120A      1.042050   121A      1.053034  
     122A      1.069653   123A      1.076365   124A      1.093438  
     125A      1.107143   126A      1.112834   127A      1.116831  
     128A      1.125193   129A      1.130646   130A      1.133532  
     131A      1.139576   132A      1.147560   133A      1.167872  
     134A      1.184979   135A      1.194085   136A      1.199312  
     137A      1.217102   138A      1.223528   139A      1.248035  
     140A      1.257488   141A      1.282023   142A      1.284791  
     143A      1.294769   144A      1.324672   145A      1.333222  
     146A      1.347699   147A      1.369376   148A      1.414545  
     149A      1.422562   150A      1.432914   151A      1.435194  
     152A      1.480238   153A      1.517785   154A      1.545070  
     155A      1.562975   156A      1.602602   157A      1.619590  
     158A      1.641066   159A      1.661499   160A      1.674322  
     161A      1.681323   162A      1.697357   163A      1.750439  
     164A      1.784708   165A      1.788077   166A      1.795805  
     167A      1.824243   168A      1.880427   169A      1.901522  
     170A      1.967100   171A      1.998939   172A      2.019761  
     173A      2.051738   174A      2.062198   175A      2.065141  
     176A      2.094900   177A      2.117066   178A      2.156263  
     179A      2.190467   180A      2.208011   181A      2.222414  
     182A      2.227369   183A      2.265565   184A      2.328434  
     185A      2.345819   186A      2.363131   187A      2.385992  
     188A      2.398667   189A      2.413004   190A      2.426260  
     191A      2.459157   192A      2.477457   193A      2.532317  
     194A      2.539745   195A      2.583752   196A      2.596366  
     197A      2.644931   198A      2.712476   199A      2.774004  
     200A      2.809795   201A      2.817404   202A      2.841057  
     203A      2.887161   204A      2.967962   205A      3.001785  
     206A      3.021044   207A      3.056858   208A      3.070028  
     209A      3.096960   210A      3.110941   211A      3.182451  
     212A      3.198528   213A      3.237991   214A      3.343391  
     215A      3.459894   216A      3.494167   217A      3.538799  
     218A      3.711541   219A      4.256264   220A      4.425509  
     221A      4.448757   222A      4.477440   223A      4.524585  
     224A      4.610699   225A      4.658722   226A      4.673501  
     227A      4.725045   228A      4.747270   229A      4.799135  
     230A      4.877372   231A      4.897385   232A      5.151583  

    Final Occupation by Irrep:
              A 
    DOCC [    64 ]

  Energy converged.

  @DF-RHF Final Energy: -1908.87806027695569

   => Energetics <=

    Nuclear Repulsion Energy =           1168.0879308929402214
    One-Electron Energy =               -4954.0006200025800354
    Two-Electron Energy =                1877.0346288326841204
    Total Energy =                      -1908.8780602769556936



Properties will be evaluated at   0.000000,   0.000000,   0.000000 [a0]

Properties computed using the SCF density matrix

  Nuclear Dipole Moment: [e a0]
     X:   -11.3325      Y:     6.9548      Z:     4.2435

  Electronic Dipole Moment: [e a0]
     X:    10.3471      Y:    -6.5965      Z:    -4.9123

  Dipole Moment: [e a0]
     X:    -0.9854      Y:     0.3583      Z:    -0.6687     Total:     1.2436

  Dipole Moment: [D]
     X:    -2.5045      Y:     0.9106      Z:    -1.6997     Total:     3.1609


*** tstop() called on wr53 at Wed Sep 26 15:40:07 2018
Module time:
	user time   =      65.67 seconds =       1.09 minutes
	system time =       4.74 seconds =       0.08 minutes
	total time  =         10 seconds =       0.17 minutes
Total time:
	user time   =     227.34 seconds =       3.79 minutes
	system time =      13.09 seconds =       0.22 minutes
	total time  =         33 seconds =       0.55 minutes

*** tstart() called on wr53
*** at Wed Sep 26 15:40:07 2018


         ------------------------------------------------------------
                                   SCF GRAD                          
                          Rob Parrish, Justin Turney,                
                       Andy Simmonett, and Alex Sokolov              
         ------------------------------------------------------------

  ==> Geometry <==

    Molecular point group: c1
    Full point group: C1

    Geometry (in Angstrom), charge = 0, multiplicity = 1:

       Center              X                  Y                   Z               Mass       
    ------------   -----------------  -----------------  -----------------  -----------------
         C           -0.345393878991    -1.160113742761     0.232978123077    12.000000000000
         O           -1.031206376834     0.857600989225     1.323139003057    15.994914619560
         C           -0.203207042379     0.198321719366     0.485710399553    12.000000000000
         C            0.849083400734     0.883865933204    -0.090300919447    12.000000000000
         H            0.964470228725     1.929233007369     0.121937648803     1.007825032070
         O           -2.615213712492     2.181705081527     2.973649028799    15.994914619560
         C            1.750995856926     0.235792927960    -0.916406104467    12.000000000000
         C            1.599039015111    -1.118869473952    -1.172753653391    12.000000000000
         C            0.549442919241    -1.811435005983    -0.591675889996    12.000000000000
         H            0.437024316077    -2.861031313898    -0.779980780591     1.007825032070
         C           -2.224408690716     1.311921309562     0.761727390218    12.000000000000
         H           -2.862284892800     0.508543230677     0.391269728700     1.007825032070
         H           -2.032540898889     1.996642763678    -0.063831213953     1.007825032070
         C           -2.958422211002     2.069804724929     1.841625993155    12.000000000000
         O           -4.093747733840     2.543069856716     1.357858244453    15.994914619560
         H           -4.542698478793     2.990682793979     2.069028027331     1.007825032070
         CL           2.690132547649    -1.988332036900    -2.198462959659    34.968852682000
         CL          -1.627719584162    -2.062091894851     0.974843451899    34.968852682000
         CL           3.046863490857     1.156394995713    -1.601994360260    34.968852682000

  Nuclear repulsion = 1168.087930892940221

  ==> Basis Set <==

  Basis Set: 6-31G(D)
    Blend: 6-31G(D)
    Number of shells: 100
    Number of basis function: 232
    Number of Cartesian functions: 232
    Spherical Harmonics?: false
    Max angular momentum: 2

  ==> DFJKGrad: Density-Fitted SCF Gradients <==

    Gradient:                    1
    J tasked:                  Yes
    K tasked:                  Yes
    wK tasked:                  No
    OpenMP threads:             16
    Integrals threads:          16
    Memory (MB):             78678
    Schwarz Cutoff:          0E+00
    Fitting Condition:       1E-12

   => Auxiliary Basis Set <=

  Basis Set: (6-31G(D) AUX)
    Blend: CC-PVDZ-JKFIT
    Number of shells: 417
    Number of basis function: 1406
    Number of Cartesian functions: 1406
    Spherical Harmonics?: false
    Max angular momentum: 3


  -Total Gradient:
     Atom            X                  Y                   Z
    ------   -----------------  -----------------  -----------------
       1       -0.000619584783     0.000008737640    -0.000273659087
       2        0.000308644178     0.004587408943     0.003249106899
       3       -0.002924079261     0.001997032855    -0.000122999562
       4       -0.000170632371     0.000518565788     0.001093382153
       5       -0.000251439934     0.000354096258    -0.000184160860
       6        0.004504047779    -0.003369713971     0.014337702939
       7       -0.000127135176    -0.000043158185     0.000339134908
       8        0.000344811979    -0.000249170540    -0.000258491008
       9       -0.000250704176    -0.000315379660     0.000206485708
      10       -0.000064099898    -0.000303750542    -0.000028657880
      11        0.000771297898    -0.008447238582     0.000537564124
      12       -0.004383914617    -0.002753737872    -0.003621094119
      13        0.000439779934     0.002549736172    -0.001159380131
      14       -0.003907305767     0.011892114984    -0.013678689016
      15        0.003857995869    -0.006087660458    -0.001735052066
      16        0.002423328172    -0.000891517724     0.001163431610
      17       -0.000003284591    -0.000024064841    -0.000026536730
      18       -0.000127606761     0.000368764351     0.000194561238
      19        0.000179881438     0.000208935399    -0.000032649146


*** tstop() called on wr53 at Wed Sep 26 15:40:16 2018
Module time:
	user time   =      63.35 seconds =       1.06 minutes
	system time =       1.75 seconds =       0.03 minutes
	total time  =          9 seconds =       0.15 minutes
Total time:
	user time   =     290.70 seconds =       4.85 minutes
	system time =      14.84 seconds =       0.25 minutes
	total time  =         42 seconds =       0.70 minutes

			-----------------------------------------
			 OPTKING 2.0: for geometry optimizations 
			  - R.A. King,  Bethel University        
			-----------------------------------------

	Previous internal coordinate definitions found.
	---Fragment 1 Geometry and Gradient---
	 C          -0.6526998393       -2.1922972568        0.4402648476
	 O          -1.9486976387        1.6206310009        2.5003703515
	 C          -0.3840056584        0.3747737358        0.9178596350
	 C           1.6045350914        1.6702645519       -0.1706440073
	 H           1.8225845956        3.6457220305        0.2304287615
	 O          -4.9420376956        4.1228251068        5.6193822798
	 C           3.3089026294        0.4455840579       -1.7317565639
	 C           3.0217458144       -2.1143568842       -2.2161832263
	 C           1.0382966430       -3.4231160688       -1.1181053915
	 H           0.8258562708       -5.4065656409       -1.4739500642
	 C          -4.2035232331        2.4791719830        1.4394561554
	 H          -5.4089345617        0.9610074327        0.7393926313
	 H          -3.8409456528        3.7731080086       -0.1206235131
	 C          -5.5906077642        3.9113640787        3.4801687663
	 O          -7.7360620741        4.8057055660        2.5659802093
	 H          -8.5844560292        5.6515714310        3.9098963329
	 CL          5.0836137762       -3.7574030110       -4.1544929070
	 CL         -3.0759442352       -3.8967889421        1.8421871465
	 CL          5.7577375620        2.1852698433       -3.0273306073
	            -0.0006195848        0.0000087376       -0.0002736591
	             0.0003086442        0.0045874089        0.0032491069
	            -0.0029240793        0.0019970329       -0.0001229996
	            -0.0001706324        0.0005185658        0.0010933822
	            -0.0002514399        0.0003540963       -0.0001841609
	             0.0045040478       -0.0033697140        0.0143377029
	            -0.0001271352       -0.0000431582        0.0003391349
	             0.0003448120       -0.0002491705       -0.0002584910
	            -0.0002507042       -0.0003153797        0.0002064857
	            -0.0000640999       -0.0003037505       -0.0000286579
	             0.0007712979       -0.0084472386        0.0005375641
	            -0.0043839146       -0.0027537379       -0.0036210941
	             0.0004397799        0.0025497362       -0.0011593801
	            -0.0039073058        0.0118921150       -0.0136786890
	             0.0038579959       -0.0060876605       -0.0017350521
	             0.0024233282       -0.0008915177        0.0011634316
	            -0.0000032846       -0.0000240648       -0.0000265367
	            -0.0001276068        0.0003687644        0.0001945612
	             0.0001798814        0.0002089354       -0.0000326491

	---Fragment 1 Intrafragment Coordinates---
	 - Coordinate -           - BOHR/RAD -       - ANG/DEG -
	 R(1,3)           =         2.624909	       1.389042
	 R(1,9)           =         2.608237	       1.380220
	 R(1,18)          =         3.277620	       1.734442
	 R(2,3)           =         2.550443	       1.349637
	 R(2,11)          =         2.635692	       1.394748
	 R(3,4)           =         2.611021	       1.381693
	 R(4,5)           =         2.027520	       1.072917
	 R(4,7)           =         2.615680	       1.384158
	 R(6,14)          =         2.245349	       1.188188
	 R(7,8)           =         2.621150	       1.387053
	 R(7,19)          =         3.271362	       1.731130
	 R(8,9)           =         2.617765	       1.385262
	 R(8,17)          =         3.272300	       1.731626
	 R(9,10)          =         2.026284	       1.072264
	 R(11,12)         =         2.061050	       1.090661
	 R(11,13)         =         2.059024	       1.089589
	 R(11,14)         =         2.853013	       1.509750
	 R(14,15)         =         2.497711	       1.321732
	 R(15,16)         =         1.800381	       0.952721
	 B(1,3,2)         =         2.126827	     121.858203
	 B(1,3,4)         =         2.079835	     119.165745
	 B(1,9,8)         =         2.101257	     120.393171
	 B(1,9,10)        =         2.093096	     119.925589
	 B(2,3,4)         =         2.075492	     118.916926
	 B(2,11,12)       =         1.979177	     113.398498
	 B(2,11,13)       =         1.938029	     111.040858
	 B(2,11,14)       =         1.866622	     106.949584
	 B(3,1,9)         =         2.098839	     120.254622
	 B(3,1,18)        =         2.101845	     120.426828
	 B(3,2,11)        =         2.019954	     115.734849
	 B(3,4,5)         =         2.074716	     118.872446
	 B(3,4,7)         =         2.109189	     120.847602
	 B(4,7,8)         =         2.090003	     119.748351
	 B(4,7,19)        =         2.065919	     118.368439
	 B(5,4,7)         =         2.099217	     120.276277
	 B(6,14,11)       =         2.199770	     126.037511
	 B(6,14,15)       =         2.168930	     124.270541
	 B(7,8,9)         =         2.087206	     119.588088
	 B(7,8,17)        =         2.130371	     122.061254
	 B(8,7,19)        =         2.127263	     121.883203
	 B(8,9,10)        =         2.088811	     119.680073
	 B(9,1,18)        =         2.082292	     119.306561
	 B(9,8,17)        =         2.065597	     118.350000
	 B(11,14,15)      =         1.912996	     109.606572
	 B(12,11,13)      =         1.884439	     107.970421
	 B(12,11,14)      =         1.905381	     109.170299
	 B(13,11,14)      =         1.888204	     108.186112
	 B(14,15,16)      =         1.875265	     107.444795
	 D(1,3,2,11)      =        -1.477299	     -84.642976
	 D(1,3,4,5)       =        -3.122952	    -178.931975
	 D(1,3,4,7)       =         0.006501	       0.372487
	 D(1,9,8,7)       =         0.005158	       0.295532
	 D(1,9,8,17)      =        -3.141475	    -179.993245
	 D(2,3,1,9)       =        -3.100572	    -177.649692
	 D(2,3,1,18)      =         0.018886	       1.082064
	 D(2,3,4,5)       =        -0.029247	      -1.675708
	 D(2,3,4,7)       =         3.100207	     177.628755
	 D(2,11,14,6)     =        -0.073169	      -4.192299
	 D(2,11,14,15)    =         3.125277	     179.065164
	 D(3,1,9,8)       =         0.002543	       0.145728
	 D(3,1,9,10)      =         3.137257	     179.751590
	 D(3,2,11,12)     =         1.087476	      62.307774
	 D(3,2,11,13)     =        -1.037965	     -59.471042
	 D(3,2,11,14)     =        -3.094460	    -177.299477
	 D(3,4,7,8)       =         0.001140	       0.065300
	 D(3,4,7,19)      =        -3.139924	    -179.904416
	 D(4,3,1,9)       =        -0.008332	      -0.477367
	 D(4,3,1,18)      =         3.111126	     178.254389
	 D(4,3,2,11)      =         1.713527	      98.177884
	 D(4,7,8,9)       =        -0.006980	      -0.399911
	 D(4,7,8,17)      =         3.139847	     179.899969
	 D(5,4,7,8)       =         3.130423	     179.360023
	 D(5,4,7,19)      =        -0.010641	      -0.609693
	 D(6,14,11,12)    =         2.074595	     118.865558
	 D(6,14,11,13)    =        -2.162023	    -123.874805
	 D(6,14,15,16)    =         0.025664	       1.470411
	 D(7,8,9,10)      =        -3.129572	    -179.311295
	 D(8,9,1,18)      =        -3.117161	    -178.600191
	 D(9,8,7,19)      =         3.134065	     179.568708
	 D(10,9,1,18)     =         0.017552	       1.005671
	 D(10,9,8,17)     =         0.006980	       0.399927
	 D(11,14,15,16)   =         3.111626	     178.283012
	 D(12,11,14,15)   =        -1.010144	     -57.876980
	 D(13,11,14,15)   =         1.036423	      59.382658
	 D(17,8,7,19)     =        -0.002294	      -0.131413
	 R(11,18)         =         6.487411	       3.432990
	 R(14,18)         =         8.365033	       4.426585

	Current energy   :     -1908.8780602770

	Energy change for the previous step:
		Projected    :        -0.0148784710
		Actual       :        -0.0050560766

	Performing BFGS update.
	Previous computed or guess Hessian on step 1.
	Steps to be used in Hessian update: 1
	Taking RFO optimization step.
	Going to follow RFO solution 1.
	Using RFO vector 1.
	Norm of target step-size    0.40556
	Projected energy change by RFO approximation:        -0.0042848184

	Back-transformation to cartesian coordinates...
	Successfully converged to displaced geometry.

	--- Internal Coordinate Step in ANG or DEG, aJ/ANG or AJ/DEG ---
	 ---------------------------------------------------------------------------
	   Coordinate                Previous        Force       Change         New 
	   ----------                --------       ------       ------       ------
	    1 R(1,3)          =      1.389042    -0.007919    -0.000886     1.388156
	    2 R(1,9)          =      1.380220    -0.001245    -0.000058     1.380162
	    3 R(1,18)         =      1.734442    -0.000496    -0.000644     1.733798
	    4 R(2,3)          =      1.349637     0.027885     0.001956     1.351592
	    5 R(2,11)         =      1.394748     0.027428     0.001687     1.396435
	    6 R(3,4)          =      1.381693     0.004033     0.000410     1.382102
	    7 R(4,5)          =      1.072917    -0.002319    -0.000094     1.072824
	    8 R(4,7)          =      1.384158    -0.001012    -0.000116     1.384042
	    9 R(6,14)         =      1.188188    -0.120645    -0.005878     1.182310
	   10 R(7,8)          =      1.387053    -0.004723    -0.000716     1.386337
	   11 R(7,19)         =      1.731130    -0.002131    -0.000321     1.730810
	   12 R(8,9)          =      1.385262    -0.003786    -0.000452     1.384810
	   13 R(8,17)         =      1.731626    -0.000212    -0.000027     1.731599
	   14 R(9,10)         =      1.072264    -0.002546    -0.000483     1.071781
	   15 R(11,12)        =      1.090661    -0.047968    -0.006167     1.084494
	   16 R(11,13)        =      1.089589    -0.021076    -0.002270     1.087319
	   17 R(11,14)        =      1.509750     0.011449     0.000745     1.510495
	   18 R(14,15)        =      1.321732     0.063317     0.004907     1.326639
	   19 R(15,16)        =      0.952721     0.005704     0.000347     0.953068
	   20 B(1,3,2)        =    121.858203    -0.000115     0.014153   121.872356
	   21 B(1,3,4)        =    119.165745    -0.000033    -0.032609   119.133135
	   22 B(1,9,8)        =    120.393171     0.000008     0.050378   120.443549
	   23 B(1,9,10)       =    119.925589    -0.000001    -0.078892   119.846696
	   24 B(2,3,4)        =    118.916926     0.000148     0.046624   118.963550
	   25 B(2,11,12)      =    113.398498    -0.000376    -0.698606   112.699892
	   26 B(2,11,13)      =    111.040858    -0.000139     0.027394   111.068252
	   27 B(2,11,14)      =    106.949584     0.000724     0.795331   107.744915
	   28 B(3,1,9)        =    120.254622     0.000019    -0.054991   120.199631
	   29 B(3,1,18)       =    120.426828    -0.000083    -0.072189   120.354639
	   30 B(3,2,11)       =    115.734849     0.000284     0.222080   115.956929
	   31 B(3,4,5)        =    118.872446    -0.000002     0.055985   118.928431
	   32 B(3,4,7)        =    120.847602     0.000018     0.112247   120.959849
	   33 B(4,7,8)        =    119.748351    -0.000014    -0.138442   119.609908
	   34 B(4,7,19)       =    118.368439     0.000019     0.072938   118.441377
	   35 B(5,4,7)        =    120.276277    -0.000016    -0.171439   120.104838
	   36 B(6,14,11)      =    126.037511     0.000145     0.281477   126.318988
	   37 B(6,14,15)      =    124.270541    -0.000318    -0.885024   123.385518
	   38 B(7,8,9)        =    119.588088     0.000002     0.064302   119.652390
	   39 B(7,8,17)       =    122.061254    -0.000003    -0.085349   121.975905
	   40 B(8,7,19)       =    121.883203    -0.000005     0.065465   121.948668
	   41 B(8,9,10)       =    119.680073    -0.000007     0.029262   119.709335
	   42 B(9,1,18)       =    119.306561     0.000065     0.133742   119.440303
	   43 B(9,8,17)       =    118.350000     0.000001     0.021134   118.371134
	   44 B(11,14,15)     =    109.606572     0.000187    -0.623298   108.983274
	   45 B(12,11,13)     =    107.970421     0.000070    -0.124938   107.845483
	   46 B(12,11,14)     =    109.170299    -0.000267    -0.771355   108.398944
	   47 B(13,11,14)     =    108.186112    -0.000002     0.816375   109.002486
	   48 B(14,15,16)     =    107.444795     0.000376     1.270021   108.714816
	   49 D(1,3,2,11)     =    -84.642976    -0.000006    -1.332242   -85.975217
	   50 D(1,3,4,5)      =   -178.931975     0.000002     0.171147  -178.760829
	   51 D(1,3,4,7)      =      0.372487     0.000001    -0.086720     0.285767
	   52 D(1,9,8,7)      =      0.295532     0.000000    -0.003667     0.291865
	   53 D(1,9,8,17)     =   -179.993245     0.000000     0.015827  -179.977418
	   54 D(2,3,1,9)      =   -177.649692    -0.000006    -0.642332  -178.292024
	   55 D(2,3,1,18)     =      1.082064    -0.000002    -0.226279     0.855786
	   56 D(2,3,4,5)      =     -1.675708     0.000006     0.929475    -0.746233
	   57 D(2,3,4,7)      =    177.628755     0.000005     0.671608   178.300363
	   58 D(2,11,14,6)    =     -4.192299     0.000062     9.314040     5.121741
	   59 D(2,11,14,15)   =    179.065164     0.000001    -6.758140   172.307024
	   60 D(3,1,9,8)      =      0.145728    -0.000000    -0.094945     0.050783
	   61 D(3,1,9,10)     =    179.751590     0.000001     0.062992   179.814582
	   62 D(3,2,11,12)    =     62.307774    -0.000031    -0.361528    61.946246
	   63 D(3,2,11,13)    =    -59.471042     0.000034     0.277800   -59.193242
	   64 D(3,2,11,14)    =   -177.299477    -0.000046    -1.210748  -178.510225
	   65 D(3,4,7,8)      =      0.065300    -0.000001    -0.011208     0.054092
	   66 D(3,4,7,19)     =   -179.904416    -0.000000     0.035580  -179.868836
	   67 D(4,3,1,9)      =     -0.477367    -0.000000     0.139827    -0.337540
	   68 D(4,3,1,18)     =    178.254389     0.000004     0.555880   178.810269
	   69 D(4,3,2,11)     =     98.177884    -0.000010    -2.110946    96.066938
	   70 D(4,7,8,9)      =     -0.399911     0.000000     0.056982    -0.342929
	   71 D(4,7,8,17)     =    179.899969     0.000000     0.036423   179.936391
	   72 D(5,4,7,8)      =    179.360023    -0.000002    -0.270484   179.089539
	   73 D(5,4,7,19)     =     -0.609693    -0.000002    -0.223696    -0.833389
	   74 D(6,14,11,12)   =    118.865558     0.000024     8.495342   127.360900
	   75 D(6,14,11,13)   =   -123.874805     0.000009     8.373118  -115.501687
	   76 D(6,14,15,16)   =      1.470411    -0.000033    -8.141217    -6.670806
	   77 D(7,8,9,10)     =   -179.311295    -0.000001    -0.160962  -179.472257
	   78 D(8,9,1,18)     =   -178.600191    -0.000004    -0.504619  -179.104810
	   79 D(9,8,7,19)     =    179.568708    -0.000000     0.008495   179.577203
	   80 D(10,9,1,18)    =      1.005671    -0.000003    -0.346682     0.658989
	   81 D(10,9,8,17)    =      0.399927    -0.000001    -0.141468     0.258459
	   82 D(11,14,15,16)  =    178.283012     0.000031     7.404687   185.687699
	   83 D(12,11,14,15)  =    -57.876980    -0.000038    -7.576837   -65.453817
	   84 D(13,11,14,15)  =     59.382658    -0.000052    -7.699062    51.683596
	   85 D(17,8,7,19)    =     -0.131413    -0.000000    -0.012064    -0.143477
	   86 R(11,18)        =      3.432990    -0.003849     0.026343     3.459333
	   87 R(14,18)        =      4.426585     0.012194     0.005676     4.432261
	 ---------------------------------------------------------------------------
	Successfully symmetrized geometry.

  ==> Convergence Check <==

  Measures of convergence in internal coordinates in au.
  Criteria marked as inactive (o), active & met (*), and active & unmet ( ).
  ---------------------------------------------------------------------------------------------
   Step     Total Energy     Delta E     MAX Force     RMS Force      MAX Disp      RMS Disp   
  ---------------------------------------------------------------------------------------------
    Convergence Criteria             o    1.50e-05 *    1.00e-05 *    6.00e-05 *    4.00e-05 *
  ---------------------------------------------------------------------------------------------
      2   -1908.87806028   -5.06e-03 o    1.46e-02      2.62e-03      1.63e-01      4.34e-02    ~
  ---------------------------------------------------------------------------------------------

	Writing optimization data to binary file.
	Structure for next step:
	Cartesian Geometry (in Angstrom)
	    C    -0.1997497427  -1.1544333787   0.2146795338
	    O    -1.0445707734   0.7709246503   1.3611727733
	    C    -0.1805639055   0.2063059809   0.4885336396
	    C     0.7752111780   1.0008936177  -0.1158929714
	    H     0.7997171036   2.0486055303   0.1135625727
	    O    -2.6929357430   2.0158188043   3.0452288217
	    C     1.7025766438   0.4595976384  -0.9891421022
	    C     1.6733291391  -0.8989599653  -1.2637260036
	    C     0.7214553729  -1.7004177661  -0.6560260368
	    H     0.7033736877  -2.7522400481  -0.8611052272
	    C    -2.2836109708   1.1465762340   0.8380142920
	    H    -2.8478957207   0.3044319834   0.4526545621
	    H    -2.1653967911   1.8657108336   0.0310864027
	    C    -3.0796512934   1.7840602872   1.9522533905
	    O    -4.1927303922   2.2996431589   1.4470792824
	    H    -4.6483246906   2.7768306125   2.1348755538
	   CL     2.8026127760  -1.6400202399  -2.3472315569
	   CL    -1.3652699113  -2.1856537281   0.9790102982
	   CL     2.8726323080   1.5140316603  -1.7066660674
			--------------------------
			 OPTKING Finished Execution 
			--------------------------

    Structure for next step:
    Molecular point group: c1
    Full point group: C1

    Geometry (in Angstrom), charge = 0, multiplicity = 1:

    C           -0.220216035688    -1.213192998066     0.239841209620
    O           -1.065037066440     0.712165030879     1.386334449041
    C           -0.201030198500     0.147546361553     0.513695315376
    C            0.754744884982     0.942133998312    -0.090731295568
    H            0.779250810546     1.989845910918     0.138724248455
    O           -2.713402035999     1.957059184891     3.070390497490
    C            1.682110350788     0.400838018974    -0.963980426371
    C            1.652862846066    -0.957719584677    -1.238564327814
    C            0.700989079851    -1.759177385524    -0.630864361026
    H            0.682907394651    -2.810999667481    -0.835943551448
    C           -2.304077263849     1.087816614643     0.863175967760
    H           -2.868362013753     0.245672364052     0.477816237912
    H           -2.185863084097     1.806951214268     0.056248078492
    C           -3.100117586455     1.725300667831     1.977415066249
    O           -4.213196685181     2.240883539481     1.472240958143
    H           -4.668790983652     2.718070993170     2.160037229569
    CL           2.782146482965    -1.698779859314    -2.322069881124
    CL          -1.385736204317    -2.244413347468     1.004171974030
    CL           2.852166015016     1.455272040930    -1.681504391592

gradient() will perform analytic gradient computation.

*** tstart() called on wr53
*** at Wed Sep 26 15:40:16 2018

   => Loading Basis Set <=

    Name: 6-31G(D)
    Role: ORBITAL
    Keyword: BASIS
    atoms 1, 3-4, 7-9, 11, 14 entry C          line   111 file /usr/local/hpc1/software_molmod/psi4/psi4conda/share/psi4/basis/6-31g_d_.gbs 
    atoms 2, 6, 15            entry O          line   145 file /usr/local/hpc1/software_molmod/psi4/psi4conda/share/psi4/basis/6-31g_d_.gbs 
    atoms 5, 10, 12-13, 16    entry H          line    44 file /usr/local/hpc1/software_molmod/psi4/psi4conda/share/psi4/basis/6-31g_d_.gbs 
[...]
	 R(2,11)          =         2.642201	       1.398192
	 R(3,4)           =         2.612409	       1.382427
	 R(4,5)           =         2.027111	       1.072701
	 R(4,7)           =         2.614745	       1.383663
	 R(6,14)          =         2.230370	       1.180261
	 R(7,8)           =         2.620550	       1.386735
	 R(7,19)          =         3.270263	       1.730549
	 R(8,9)           =         2.616153	       1.384409
	 R(8,17)          =         3.272210	       1.731579
	 R(9,10)          =         2.025544	       1.071872
	 R(11,12)         =         2.046995	       1.083223
	 R(11,13)         =         2.051155	       1.085425
	 R(11,14)         =         2.854043	       1.510294
	 R(14,15)         =         2.514238	       1.330478
	 R(15,16)         =         1.800086	       0.952564
	 B(1,3,2)         =         2.123144	     121.647208
	 B(1,3,4)         =         2.078332	     119.079623
	 B(1,9,8)         =         2.102494	     120.464027
	 B(1,9,10)        =         2.092497	     119.891219
	 B(2,3,4)         =         2.081002	     119.232617
	 B(2,11,12)       =         1.948047	     111.614899
	 B(2,11,13)       =         1.942328	     111.287193
	 B(2,11,14)       =         1.898929	     108.800629
	 B(3,1,9)         =         2.098447	     120.232178
	 B(3,1,18)        =         2.102654	     120.473220
	 B(3,2,11)        =         2.028873	     116.245839
	 B(3,4,5)         =         2.075055	     118.891874
	 B(3,4,7)         =         2.111138	     120.959308
	 B(4,7,8)         =         2.088700	     119.673687
	 B(4,7,19)        =         2.067049	     118.433203
	 B(5,4,7)         =         2.096858	     120.141104
	 B(6,14,11)       =         2.211857	     126.730054
	 B(6,14,15)       =         2.162016	     123.874387
	 B(7,8,9)         =         2.087231	     119.589510
	 B(7,8,17)        =         2.130175	     122.050062
	 B(8,7,19)        =         2.127434	     121.892988
	 B(8,9,10)        =         2.088192	     119.644577
	 B(9,1,18)        =         2.082020	     119.290956
	 B(9,8,17)        =         2.065771	     118.359941
	 B(11,14,15)      =         1.909266	     109.392912
	 B(12,11,13)      =         1.886222	     108.072555
	 B(12,11,14)      =         1.897209	     108.702085
	 B(13,11,14)      =         1.889771	     108.275906
	 B(14,15,16)      =         1.894775	     108.562590
	 D(1,3,2,11)      =        -1.552288	     -88.939543
	 D(1,3,4,5)       =        -3.117278	    -178.606861
	 D(1,3,4,7)       =         0.006703	       0.384066
	 D(1,9,8,7)       =         0.005940	       0.340341
	 D(1,9,8,17)      =        -3.139997	    -179.908549
	 D(2,3,1,9)       =        -3.106213	    -177.972904
	 D(2,3,1,18)      =         0.023171	       1.327608
	 D(2,3,4,5)       =        -0.015433	      -0.884271
	 D(2,3,4,7)       =         3.108548	     178.106655
	 D(2,11,14,6)     =         0.060313	       3.455662
	 D(2,11,14,15)    =        -3.091353	    -177.121483
	 D(3,1,9,8)       =        -0.000919	      -0.052647
	 D(3,1,9,10)      =         3.137992	     179.793726
	 D(3,2,11,12)     =         1.124854	      64.449359
	 D(3,2,11,13)     =        -0.984037	     -56.381165
	 D(3,2,11,14)     =        -3.064823	    -175.601448
	 D(3,4,7,8)       =        -0.001726	      -0.098883
	 D(3,4,7,19)      =        -3.141142	    -179.974203
	 D(4,3,1,9)       =        -0.005366	      -0.307460
	 D(4,3,1,18)      =         3.124018	     178.993052
	 D(4,3,2,11)      =         1.630111	      93.398495
	 D(4,7,8,9)       =        -0.004616	      -0.264495
	 D(4,7,8,17)      =         3.141486	     179.993907
	 D(5,4,7,8)       =         3.122036	     178.879508
	 D(5,4,7,19)      =        -0.017380	      -0.995812
	 D(6,14,11,12)    =         2.185077	     125.195710
	 D(6,14,11,13)    =        -2.053018	    -117.629272
	 D(6,14,15,16)    =        -0.001622	      -0.092920
	 D(7,8,9,10)      =        -3.132978	    -179.506410
	 D(8,9,1,18)      =        -3.130447	    -179.361405
	 D(9,8,7,19)      =         3.134723	     179.606370
	 D(10,9,1,18)     =         0.008464	       0.484968
	 D(10,9,8,17)     =         0.004271	       0.244701
	 D(11,14,15,16)   =        -3.133491	    -179.535795
	 D(12,11,14,15)   =        -0.966588	     -55.381435
	 D(13,11,14,15)   =         1.078501	      61.793583
	 D(17,8,7,19)     =        -0.002360	      -0.135228
	 R(11,18)         =         6.626584	       3.506637
	 R(14,18)         =         8.527338	       4.512473

	Current energy   :     -1908.8790407832

	Energy change for the previous step:
		Projected    :        -0.0000000010
		Actual       :        -0.0000000014
	Energy ratio indicates good step: Trust radius increased to 7.500e-01.


	Performing BFGS update.
	Previous computed or guess Hessian on step 1.
	Denominators (dg)(dq) or (dq)(dq) are very small.
	 Skipping Hessian update for step 14.
	Denominators (dg)(dq) or (dq)(dq) are very small.
	 Skipping Hessian update for step 13.
	Denominators (dg)(dq) or (dq)(dq) are very small.
	 Skipping Hessian update for step 12.
	Denominators (dg)(dq) or (dq)(dq) are very small.
	 Skipping Hessian update for step 11.
	Steps to be used in Hessian update: 10 9
	Taking RFO optimization step.
	Going to follow RFO solution 1.
	Using RFO vector 1.
	Norm of target step-size    0.00016
	Projected energy change by RFO approximation:        -0.0000000001

	Back-transformation to cartesian coordinates...
	Successfully converged to displaced geometry.

	--- Internal Coordinate Step in ANG or DEG, aJ/ANG or AJ/DEG ---
	 ---------------------------------------------------------------------------
	   Coordinate                Previous        Force       Change         New 
	   ----------                --------       ------       ------       ------
	    1 R(1,3)          =      1.388305    -0.000003    -0.000000     1.388304
	    2 R(1,9)          =      1.380492     0.000000     0.000000     1.380492
	    3 R(1,18)         =      1.733941     0.000000     0.000000     1.733941
	    4 R(2,3)          =      1.352621     0.000008     0.000001     1.352622
	    5 R(2,11)         =      1.398192     0.000003     0.000001     1.398193
	    6 R(3,4)          =      1.382427     0.000003     0.000001     1.382428
	    7 R(4,5)          =      1.072701     0.000000    -0.000000     1.072701
	    8 R(4,7)          =      1.383663     0.000000    -0.000000     1.383663
	    9 R(6,14)         =      1.180261     0.000006    -0.000000     1.180261
	   10 R(7,8)          =      1.386735    -0.000001    -0.000000     1.386735
	   11 R(7,19)         =      1.730549     0.000001     0.000000     1.730549
	   12 R(8,9)          =      1.384409    -0.000002    -0.000000     1.384408
	   13 R(8,17)         =      1.731579    -0.000000    -0.000000     1.731579
	   14 R(9,10)         =      1.071872    -0.000000    -0.000000     1.071872
	   15 R(11,12)        =      1.083223    -0.000001    -0.000001     1.083222
	   16 R(11,13)        =      1.085425     0.000004     0.000000     1.085425
	   17 R(11,14)        =      1.510294    -0.000002    -0.000000     1.510294
	   18 R(14,15)        =      1.330478     0.000001    -0.000000     1.330477
	   19 R(15,16)        =      0.952564     0.000002    -0.000000     0.952564
	   20 B(1,3,2)        =    121.647208    -0.000000     0.000099   121.647306
	   21 B(1,3,4)        =    119.079623    -0.000000    -0.000016   119.079607
	   22 B(1,9,8)        =    120.464027     0.000000     0.000038   120.464065
	   23 B(1,9,10)       =    119.891219    -0.000000    -0.000029   119.891190
	   24 B(2,3,4)        =    119.232617     0.000000    -0.000015   119.232602
	   25 B(2,11,12)      =    111.614899     0.000000     0.000460   111.615359
	   26 B(2,11,13)      =    111.287193    -0.000000    -0.000351   111.286842
	   27 B(2,11,14)      =    108.800629     0.000000     0.000060   108.800689
	   28 B(3,1,9)        =    120.232178    -0.000000    -0.000022   120.232156
	   29 B(3,1,18)       =    120.473220    -0.000000    -0.000029   120.473192
	   30 B(3,2,11)       =    116.245839     0.000000     0.000268   116.246107
	   31 B(3,4,5)        =    118.891874     0.000000    -0.000026   118.891848
	   32 B(3,4,7)        =    120.959308    -0.000000     0.000024   120.959332
	   33 B(4,7,8)        =    119.673687    -0.000000    -0.000027   119.673660
	   34 B(4,7,19)       =    118.433203     0.000000     0.000040   118.433243
	   35 B(5,4,7)        =    120.141104    -0.000000     0.000003   120.141107
	   36 B(6,14,11)      =    126.730054    -0.000000    -0.000123   126.729931
	   37 B(6,14,15)      =    123.874387    -0.000000     0.000042   123.874429
	   38 B(7,8,9)        =    119.589510     0.000000     0.000006   119.589515
	   39 B(7,8,17)       =    122.050062    -0.000000    -0.000047   122.050015
	   40 B(8,7,19)       =    121.892988    -0.000000    -0.000020   121.892968
	   41 B(8,9,10)       =    119.644577    -0.000000    -0.000009   119.644568
	   42 B(9,1,18)       =    119.290956     0.000000     0.000047   119.291003
	   43 B(9,8,17)       =    118.359941     0.000000     0.000035   118.359975
	   44 B(11,14,15)     =    109.392912     0.000000     0.000080   109.392991
	   45 B(12,11,13)     =    108.072555    -0.000000    -0.000042   108.072513
	   46 B(12,11,14)     =    108.702085     0.000000     0.000235   108.702320
	   47 B(13,11,14)     =    108.275906    -0.000000    -0.000374   108.275531
	   48 B(14,15,16)     =    108.562590     0.000000    -0.000038   108.562551
	   49 D(1,3,2,11)     =    -88.939543     0.000000     0.001547   -88.937996
	   50 D(1,3,4,5)      =   -178.606861     0.000000     0.000217  -178.606643
	   51 D(1,3,4,7)      =      0.384066     0.000000     0.000310     0.384376
	   52 D(1,9,8,7)      =      0.340341     0.000000    -0.000080     0.340261
	   53 D(1,9,8,17)     =   -179.908549    -0.000000    -0.001791  -179.910340
	   54 D(2,3,1,9)      =   -177.972904    -0.000000    -0.001095  -177.973999
	   55 D(2,3,1,18)     =      1.327608    -0.000000    -0.001389     1.326219
	   56 D(2,3,4,5)      =     -0.884271     0.000000     0.002110    -0.882161
	   57 D(2,3,4,7)      =    178.106655     0.000000     0.002203   178.108858
	   58 D(2,11,14,6)    =      3.455662    -0.000000     0.001228     3.456890
	   59 D(2,11,14,15)   =   -177.121483    -0.000000     0.001076  -177.120407
	   60 D(3,1,9,8)      =     -0.052647    -0.000000    -0.000959    -0.053606
	   61 D(3,1,9,10)     =    179.793726    -0.000000    -0.001122   179.792604
	   62 D(3,2,11,12)    =     64.449359    -0.000000     0.000778    64.450137
	   63 D(3,2,11,13)    =    -56.381165    -0.000000     0.000758   -56.380407
	   64 D(3,2,11,14)    =   -175.601448     0.000000     0.001395  -175.600053
	   65 D(3,4,7,8)      =     -0.098883    -0.000000    -0.001343    -0.100226
	   66 D(3,4,7,19)     =   -179.974203     0.000000     0.002482  -179.971721
	   67 D(4,3,1,9)      =     -0.307460     0.000000     0.000842    -0.306618
	   68 D(4,3,1,18)     =    178.993052     0.000000     0.000548   178.993600
	   69 D(4,3,2,11)     =     93.398495    -0.000000    -0.000393    93.398102
	   70 D(4,7,8,9)      =     -0.264495     0.000000     0.001219    -0.263275
	   71 D(4,7,8,17)     =    179.993907     0.000000     0.002996   179.996903
	   72 D(5,4,7,8)      =    178.879508    -0.000000    -0.001249   178.878259
	   73 D(5,4,7,19)     =     -0.995812     0.000000     0.002576    -0.993236
	   74 D(6,14,11,12)   =    125.195710     0.000000     0.001968   125.197679
	   75 D(6,14,11,13)   =   -117.629272     0.000000     0.001841  -117.627431
	   76 D(6,14,15,16)   =     -0.092920     0.000000     0.000431    -0.092488
	   77 D(7,8,9,10)     =   -179.506410     0.000000     0.000083  -179.506327
	   78 D(8,9,1,18)     =   -179.361405    -0.000000    -0.000669  -179.362073
	   79 D(9,8,7,19)     =    179.606370    -0.000000    -0.002742   179.603628
	   80 D(10,9,1,18)    =      0.484968    -0.000000    -0.000832     0.484137
	   81 D(10,9,8,17)    =      0.244701    -0.000000    -0.001628     0.243072
	   82 D(11,14,15,16)  =   -179.535795     0.000000     0.000579  -179.535216
	   83 D(12,11,14,15)  =    -55.381435     0.000000     0.001817   -55.379618
	   84 D(13,11,14,15)  =     61.793583     0.000000     0.001689    61.795272
	   85 D(17,8,7,19)    =     -0.135228    -0.000000    -0.000966    -0.136194
	   86 R(11,18)        =      3.506637    -0.000001    -0.000009     3.506628
	   87 R(14,18)        =      4.512473     0.000001     0.000017     4.512490
	 ---------------------------------------------------------------------------
	Successfully symmetrized geometry.

  ==> Convergence Check <==

  Measures of convergence in internal coordinates in au.
  Criteria marked as inactive (o), active & met (*), and active & unmet ( ).
  ---------------------------------------------------------------------------------------------
   Step     Total Energy     Delta E     MAX Force     RMS Force      MAX Disp      RMS Disp   
  ---------------------------------------------------------------------------------------------
    Convergence Criteria             o    1.50e-05 *    1.00e-05 *    6.00e-05 *    4.00e-05 *
  ---------------------------------------------------------------------------------------------
     15   -1908.87904078   -1.43e-09 o    1.24e-06 *    3.95e-07 *    5.23e-05 *    1.72e-05 *  ~
  ---------------------------------------------------------------------------------------------


  **** Optimization is complete! (in 15 steps) ****

  ==> Optimization Summary <==

  Measures of convergence in internal coordinates in au.
  --------------------------------------------------------------------------------------------------------------- ~
   Step         Total Energy             Delta E       MAX Force       RMS Force        MAX Disp        RMS Disp  ~
  --------------------------------------------------------------------------------------------------------------- ~
      1   -1908.873004200350  -1908.873004200350      0.03034494      0.00584499      0.14073977      0.03228402  ~
      2   -1908.878060276956     -0.005056076605      0.01464362      0.00262357      0.16256066      0.04341671  ~
      3   -1908.875865351368      0.002194925587      0.00827067      0.00241838      0.12244589      0.03090532  ~
      4   -1908.878818331003     -0.002952979635      0.01030543      0.00152318      0.04187832      0.00972386  ~
      5   -1908.879009294532     -0.000190963529      0.00078944      0.00021362      0.02147028      0.00398848  ~
      6   -1908.879026223463     -0.000016928930      0.00080581      0.00010274      0.02749222      0.00544965  ~
      7   -1908.879033959838     -0.000007736375      0.00022886      0.00006141      0.03677129      0.00601799  ~
      8   -1908.879038530615     -0.000004570777      0.00019465      0.00003632      0.02406312      0.00352259  ~
      9   -1908.879040037357     -0.000001506742      0.00012080      0.00002196      0.01564707      0.00244818  ~
     10   -1908.879040657262     -0.000000619906      0.00009296      0.00001400      0.00437011      0.00078901  ~
     11   -1908.879040757941     -0.000000100679      0.00002010      0.00000466      0.00087022      0.00024636  ~
     12   -1908.879040778046     -0.000000020105      0.00001670      0.00000270      0.00046108      0.00013045  ~
     13   -1908.879040783518     -0.000000005472      0.00000327      0.00000102      0.00020725      0.00005965  ~
     14   -1908.879040781772      0.000000001746      0.00000477      0.00000081      0.00010470      0.00003129  ~
     15   -1908.879040783206     -0.000000001434      0.00000124      0.00000040      0.00005229      0.00001725  ~
  --------------------------------------------------------------------------------------------------------------- ~

	Writing optimization data to binary file.
	Final energy is  -1908.8790407832057
	Final (previous) structure:
	Cartesian Geometry (in Angstrom)
	    C    -0.2199166178  -1.2216005108   0.2376716455
	    O    -1.0652089291   0.6961939240   1.3931325743
	    C    -0.2009600819   0.1386732783   0.5145944855
	    C     0.7564529325   0.9336398426  -0.0874799735
	    H     0.7825899213   1.9802916112   0.1460240116
	    O    -2.7072099497   2.0241638314   3.0661700096
	    C     1.6829347362   0.3934824850  -0.9617713927
	    C     1.6548060843  -0.9650178963  -1.2387553162
	    C     0.7027409603  -1.7667040030  -0.6325715616
	    H     0.6852096099  -2.8181864327  -0.8399040151
	    C    -2.2860093519   1.1310080821   0.8682276251
	    H    -2.8733319973   0.3046233952   0.4867665125
	    H    -2.1372554399   1.8398390801   0.0597861201
	    C    -3.0692083882   1.8175524299   1.9619575352
	    O    -4.2594430927   2.1811021384   1.4914855586
	    H    -4.7400058408   2.6187157649   2.1878566051
	   CL     2.7840850546  -1.7053695247  -2.3227179099
	   CL    -1.3883840963  -2.2565067886   0.9927901983
	   CL     2.8528362016   1.4485872246  -1.6779296586
	Saving final (previous) structure.
	Removing binary optimization data file.
			--------------------------
			 OPTKING Finished Execution 
			--------------------------

    Final optimized geometry and variables:
    Molecular point group: c1
    Full point group: C1

    Geometry (in Angstrom), charge = 0, multiplicity = 1:

    C           -0.219916617788    -1.221600510791     0.237671645473
    O           -1.065208929071     0.696193923991     1.393132574347
    C           -0.200960081850     0.138673278275     0.514594485549
    C            0.756452932523     0.933639842593    -0.087479973455
    H            0.782589921267     1.980291611214     0.146024011554
    O           -2.707209949705     2.024163831380     3.066170009571
    C            1.682934736203     0.393482484954    -0.961771392693
    C            1.654806084279    -0.965017896311    -1.238755316184
    C            0.702740960314    -1.766704002991    -0.632571561586
    H            0.685209609892    -2.818186432750    -0.839904015060
    C           -2.286009351916     1.131008082126     0.868227625106
    H           -2.873331997316     0.304623395192     0.486766512468
    H           -2.137255439898     1.839839080118     0.059786120087
    C           -3.069208388154     1.817552429863     1.961957535179
    O           -4.259443092680     2.181102138402     1.491485558632
    H           -4.740005840805     2.618715764890     2.187856605093
    CL           2.784085054598    -1.705369524744    -2.322717909929
    CL          -1.388384096265    -2.256506788629     0.992790198284
    CL           2.852836201602     1.448587224617    -1.677929658604

	Removing binary optimization data file.
	Cleaning optimization helper files.


  Variable Map:
  ----------------------------------------------------------------------------
  "CURRENT DIPOLE X"         =>      -2.544845331818
  "CURRENT DIPOLE Y"         =>       0.702184658673
  "CURRENT DIPOLE Z"         =>      -1.588726712595
  "CURRENT ENERGY"           =>   -1908.879040783206
  "CURRENT REFERENCE ENERGY" =>   -1908.879040783206
  "HF TOTAL ENERGY"          =>   -1908.879040783206
  "NUCLEAR REPULSION ENERGY" =>    1165.832713500211
  "ONE-ELECTRON ENERGY"      =>   -4949.476802632863
  "OPTIMIZATION ITERATIONS"  =>      15.000000000000
  "PCM POLARIZATION ENERGY"  =>       0.000000000000
  "SCF DIPOLE X"             =>      -2.544845331818
  "SCF DIPOLE Y"             =>       0.702184658673
  "SCF DIPOLE Z"             =>      -1.588726712595
  "SCF ITERATION ENERGY"     =>   -1908.879040783206
  "SCF ITERATIONS"           =>       5.000000000000
  "SCF N ITERS"              =>       5.000000000000
  "SCF TOTAL ENERGY"         =>   -1908.879040783206
  "TWO-ELECTRON ENERGY"      =>    1874.765048349446



    Psi4 stopped on: Wednesday, 26 September 2018 03:44PM
    Psi4 wall time for execution: 0:04:35.22

*** Psi4 exiting successfully. Buy a developer a beer!
