
    -----------------------------------------------------------------------
          Psi4: An Open-Source Ab Initio Electronic Structure Package
                               Psi4 1.1a2.dev170 

                         Git: Rev {master} e4fcd91 dirty


    J. M. Turney, A. C. Simmonett, R. M. Parrish, E. G. Hohenstein,
    F. A. Evangelista, J. T. Fermann, B. J. Mintz, L. A. Burns, J. J. Wilke,
    M. L. Abrams, N. J. Russ, M. L. Leininger, C. L. Janssen, E. T. Seidl,
    W. D. Allen, H. F. Schaefer, R. A. King, E. F. Valeev, C. D. Sherrill,
    and T. D. Crawford, WIREs Comput. Mol. Sci. 2, 556-565 (2012)
    (doi: 10.1002/wcms.93)


                         Additional Contributions by
    A. E. DePrince, U. Bozkaya, A. Yu. Sokolov, D. G. A. Smith, R. Di Remigio,
    R. M. Richard, J. F. Gonthier, H. R. McAlexander, M. Saitow, and
    B. P. Pritchard
    -----------------------------------------------------------------------


    Psi4 started on: Thursday, 27 September 2018 09:43AM

    Process ID:   8983
    PSIDATADIR: /usr/local/software/miniconda2/envs/p4env/share/psi4
    Memory:     500.0 MiB
    Threads:    8
    
  ==> Input File <==

--------------------------------------------------------------------------
memory 20 Gb

molecule conf5 {
0 1
C         -0.22000       -1.22200        0.23800
O         -1.06500        0.69600        1.39300
C         -0.20100        0.13900        0.51500
C          0.75600        0.93400       -0.08700
H          0.78300        1.98000        0.14600
O         -4.14500        2.29400        1.86700
C          1.68300        0.39300       -0.96200
C          1.65500       -0.96500       -1.23900
C          0.70300       -1.76700       -0.63300
H          0.68500       -2.81800       -0.84000
C         -2.28600        1.13100        0.86800
H         -2.87300        0.30500        0.48700
H         -2.13700        1.84000        0.06000
C         -3.06900        1.81800        1.96200
O         -2.36200        1.80000        3.08900
H         -2.87000        2.22900        3.77200
Cl         2.78400       -1.70500       -2.32300
Cl        -1.38800       -2.25700        0.99300
Cl         2.85300        1.44900       -1.67800
}
set globals {
  reference rhf
  g_convergence gau_tight
  basis 6-31G(d)
}
optimize('scf')
--------------------------------------------------------------------------

  Memory set to  20.000 GiB by Python script.
gradient() will perform analytic gradient computation.

*** tstart() called on dakota
*** at Thu Sep 27 09:43:01 2018


         ---------------------------------------------------------
                                   SCF
            by Justin Turney, Rob Parrish, and Andy Simmonett
                              RHF Reference
                        8 Threads,  20000 MiB Core
         ---------------------------------------------------------

  ==> Geometry <==

    Molecular point group: c1
    Full point group: C1

    Geometry (in Angstrom), charge = 0, multiplicity = 1:

       Center              X                  Y                   Z               Mass       
    ------------   -----------------  -----------------  -----------------  -----------------
           C         -0.256462693927    -1.213472402603     0.206641923359    12.000000000000
           O         -1.101462693927     0.704527597397     1.361641923359    15.994914619560
           C         -0.237462693927     0.147527597397     0.483641923359    12.000000000000
           C          0.719537306073     0.942527597397    -0.118358076641    12.000000000000
           H          0.746537306073     1.988527597397     0.114641923359     1.007825032070
           O         -4.181462693927     2.302527597397     1.835641923359    15.994914619560
           C          1.646537306073     0.401527597397    -0.993358076641    12.000000000000
           C          1.618537306073    -0.956472402603    -1.270358076641    12.000000000000
           C          0.666537306073    -1.758472402603    -0.664358076641    12.000000000000
           H          0.648537306073    -2.809472402603    -0.871358076641     1.007825032070
           C         -2.322462693927     1.139527597397     0.836641923359    12.000000000000
           H         -2.909462693927     0.313527597397     0.455641923359     1.007825032070
           H         -2.173462693927     1.848527597397     0.028641923359     1.007825032070
           C         -3.105462693927     1.826527597397     1.930641923359    12.000000000000
           O         -2.398462693927     1.808527597397     3.057641923359    15.994914619560
           H         -2.906462693927     2.237527597397     3.740641923359     1.007825032070
          CL          2.747537306073    -1.696472402603    -2.354358076641    34.968852682000
          CL         -1.424462693927    -2.248472402603     0.961641923359    34.968852682000
          CL          2.816537306073     1.457527597397    -1.709358076641    34.968852682000

  Running in c1 symmetry.

  Rotational constants: A =      0.02743  B =      0.00825  C =      0.00661 [cm^-1]
  Rotational constants: A =    822.34401  B =    247.19721  C =    198.13804 [MHz]
  Nuclear repulsion = 1170.598933865178651

  Charge       = 0
  Multiplicity = 1
  Electrons    = 128
  Nalpha       = 64
  Nbeta        = 64

  ==> Algorithm <==

  SCF Algorithm Type is DF.
  DIIS enabled.
  MOM disabled.
  Fractional occupation disabled.
  Guess Type is SAD.
  Energy threshold   = 1.00e-08
  Density threshold  = 1.00e-08
  Integral threshold = 0.00e+00

  ==> Primary Basis <==

  Basis Set: file /usr/local/software/miniconda2/envs/p4env/share/psi4/basis/6-31g_d_.gbs
    Number of shells: 100
    Number of basis function: 232
    Number of Cartesian functions: 232
    Spherical Harmonics?: false
    Max angular momentum: 2

  ==> Pre-Iterations <==

   -------------------------------------------------------
    Irrep   Nso     Nmo     Nalpha   Nbeta   Ndocc  Nsocc
   -------------------------------------------------------
     A        232     232       0       0       0       0
   -------------------------------------------------------
    Total     232     232      64      64      64       0
   -------------------------------------------------------

  ==> Integral Setup <==

  ==> DFJK: Density-Fitted J/K Matrices <==

    J tasked:                  Yes
    K tasked:                  Yes
    wK tasked:                  No
    OpenMP threads:              8
    Integrals threads:           8
    Memory (MB):             14305
    Algorithm:                Core
    Integral Cache:           NONE
    Schwarz Cutoff:          1E-12
    Fitting Condition:       1E-12

   => Auxiliary Basis Set <=

  Basis Set: file /usr/local/software/miniconda2/envs/p4env/share/psi4/basis/cc-pvdz-jkfit.gbs
    Number of shells: 417
    Number of basis function: 1406
    Number of Cartesian functions: 1406
    Spherical Harmonics?: false
    Max angular momentum: 3

  Minimum eigenvalue in the overlap matrix is 3.6903697686E-04.
  Using Symmetric Orthogonalization.

  SCF Guess: Superposition of Atomic Densities via on-the-fly atomic UHF.

  ==> Iterations <==

                           Total Energy        Delta E     RMS |[F,P]|

   @DF-RHF iter   0: -1915.27935844405738   -1.91528e+03   2.90193e-02 
   @DF-RHF iter   1: -1908.39119700831293    6.88816e+00   3.80962e-03 
   @DF-RHF iter   2: -1908.72760930925779   -3.36412e-01   2.36858e-03 DIIS
   @DF-RHF iter   3: -1908.85719868538604   -1.29589e-01   5.57208e-04 DIIS
   @DF-RHF iter   4: -1908.87322539207685   -1.60267e-02   1.82135e-04 DIIS
   @DF-RHF iter   5: -1908.87491711670123   -1.69172e-03   7.28743e-05 DIIS
   @DF-RHF iter   6: -1908.87521108892565   -2.93972e-04   2.11273e-05 DIIS
   @DF-RHF iter   7: -1908.87524141146105   -3.03225e-05   5.88955e-06 DIIS
   @DF-RHF iter   8: -1908.87524332220528   -1.91074e-06   2.44520e-06 DIIS
   @DF-RHF iter   9: -1908.87524363774401   -3.15539e-07   8.43241e-07 DIIS
   @DF-RHF iter  10: -1908.87524368794061   -5.01966e-08   3.57883e-07 DIIS
   @DF-RHF iter  11: -1908.87524369814491   -1.02043e-08   1.64587e-07 DIIS
   @DF-RHF iter  12: -1908.87524370030428   -2.15937e-09   6.11806e-08 DIIS
   @DF-RHF iter  13: -1908.87524370066694   -3.62661e-10   2.24603e-08 DIIS
   @DF-RHF iter  14: -1908.87524370071674   -4.97948e-11   9.70928e-09 DIIS

  ==> Post-Iterations <==

    Orbital Energies (a.u.)
    -----------------------

    Doubly Occupied:                                                      

       1A   -104.850217     2A   -104.848951     3A   -104.847783  
       4A    -20.623537     5A    -20.615487     6A    -20.571284  
       7A    -11.402960     8A    -11.338996     9A    -11.338477  
      10A    -11.334907    11A    -11.330179    12A    -11.323291  
      13A    -11.285292    14A    -11.277257    15A    -10.583259  
      16A    -10.582207    17A    -10.581009    18A     -8.052708  
      19A     -8.051649    20A     -8.050456    21A     -8.049248  
      22A     -8.049182    23A     -8.048117    24A     -8.048094  
      25A     -8.046915    26A     -8.046910    27A     -1.494140  
      28A     -1.450132    29A     -1.385976    30A     -1.245825  
      31A     -1.188390    32A     -1.155822    33A     -1.116111  
      34A     -1.058194    35A     -1.023004    36A     -0.981508  
      37A     -0.884790    38A     -0.853224    39A     -0.831245  
      40A     -0.748069    41A     -0.741449    42A     -0.722827  
      43A     -0.701712    44A     -0.686078    45A     -0.675917  
      46A     -0.651380    47A     -0.621395    48A     -0.616739  
      49A     -0.610269    50A     -0.591372    51A     -0.579617  
      52A     -0.569214    53A     -0.560139    54A     -0.530432  
      55A     -0.504205    56A     -0.502168    57A     -0.487942  
      58A     -0.478369    59A     -0.471571    60A     -0.464709  
      61A     -0.460842    62A     -0.458592    63A     -0.368399  
      64A     -0.347947  

    Virtual:                                                              

      65A      0.094280    66A      0.103963    67A      0.147486  
      68A      0.177395    69A      0.202510    70A      0.218285  
      71A      0.233593    72A      0.246936    73A      0.281788  
      74A      0.291292    75A      0.302106    76A      0.319784  
      77A      0.327025    78A      0.380599    79A      0.416235  
      80A      0.429677    81A      0.435578    82A      0.463823  
      83A      0.469385    84A      0.475594    85A      0.517726  
      86A      0.528666    87A      0.546878    88A      0.576385  
      89A      0.584051    90A      0.596454    91A      0.600591  
      92A      0.618852    93A      0.622165    94A      0.637993  
      95A      0.651500    96A      0.658779    97A      0.671465  
      98A      0.683467    99A      0.701718   100A      0.719754  
     101A      0.737916   102A      0.765815   103A      0.769523  
     104A      0.784571   105A      0.797141   106A      0.808086  
     107A      0.812920   108A      0.845955   109A      0.854952  
     110A      0.874519   111A      0.888512   112A      0.929134  
     113A      0.936133   114A      0.945854   115A      0.960354  
     116A      0.967425   117A      0.982253   118A      1.008315  
     119A      1.024410   120A      1.031165   121A      1.050503  
     122A      1.056575   123A      1.073641   124A      1.087524  
     125A      1.107418   126A      1.109513   127A      1.116753  
     128A      1.124540   129A      1.129831   130A      1.133532  
     131A      1.134882   132A      1.140331   133A      1.168517  
     134A      1.179977   135A      1.191931   136A      1.199459  
     137A      1.216497   138A      1.242147   139A      1.246801  
     140A      1.260924   141A      1.280639   142A      1.290425  
     143A      1.300930   144A      1.323008   145A      1.334142  
     146A      1.348418   147A      1.373651   148A      1.390013  
     149A      1.414491   150A      1.429239   151A      1.434076  
     152A      1.457548   153A      1.487439   154A      1.561891  
     155A      1.579440   156A      1.602951   157A      1.632458  
     158A      1.657853   159A      1.671421   160A      1.680277  
     161A      1.692351   162A      1.749262   163A      1.750195  
     164A      1.782578   165A      1.790075   166A      1.799166  
     167A      1.822637   168A      1.855220   169A      1.920839  
     170A      1.973246   171A      2.008331   172A      2.033918  
     173A      2.048813   174A      2.066868   175A      2.074989  
     176A      2.102719   177A      2.117988   178A      2.155387  
     179A      2.176832   180A      2.213526   181A      2.221699  
     182A      2.235298   183A      2.261117   184A      2.322037  
     185A      2.340873   186A      2.350686   187A      2.385076  
     188A      2.401328   189A      2.412609   190A      2.431118  
     191A      2.462001   192A      2.480748   193A      2.538107  
     194A      2.541714   195A      2.581729   196A      2.597129  
     197A      2.662063   198A      2.696922   199A      2.713207  
     200A      2.762995   201A      2.835483   202A      2.881185  
     203A      2.929034   204A      2.969005   205A      3.007502  
     206A      3.034342   207A      3.049448   208A      3.067595  
     209A      3.082471   210A      3.121009   211A      3.176089  
     212A      3.193059   213A      3.262042   214A      3.340323  
     215A      3.477924   216A      3.488301   217A      3.539575  
     218A      3.708759   219A      4.275102   220A      4.424885  
     221A      4.465342   222A      4.491749   223A      4.506340  
     224A      4.587352   225A      4.626834   226A      4.659550  
     227A      4.723958   228A      4.746379   229A      4.798812  
     230A      4.876279   231A      4.953924   232A      5.152714  

    Final Occupation by Irrep:
              A 
    DOCC [    64 ]

  Energy converged.

  @DF-RHF Final Energy: -1908.87524370071674

   => Energetics <=

    Nuclear Repulsion Energy =           1170.5989338651786511
    One-Electron Energy =               -4958.9521928220819973
    Two-Electron Energy =                1879.4780152561863815
    DFT Exchange-Correlation Energy =       0.0000000000000000
    Empirical Dispersion Energy =           0.0000000000000000
    PCM Polarization Energy =               0.0000000000000000
    EFP Energy =                            0.0000000000000000
    Total Energy =                      -1908.8752437007167373

    Alert: EFP and PCM quantities not currently incorporated into SCF psivars.

Properties will be evaluated at   0.000000,   0.000000,   0.000000 Bohr

Properties computed using the SCF density matrix

  Nuclear Dipole Moment: (a.u.)
     X:   -10.0084      Y:     5.6551      Z:     6.1211

  Electronic Dipole Moment: (a.u.)
     X:     9.9390      Y:    -5.5851      Z:    -6.0251

  Dipole Moment: (a.u.)
     X:    -0.0694      Y:     0.0699      Z:     0.0960     Total:     0.1376

  Dipole Moment: (Debye)
     X:    -0.1764      Y:     0.1778      Z:     0.2441     Total:     0.3497


*** tstop() called on dakota at Thu Sep 27 09:43:29 2018
Module time:
	user time   =     103.65 seconds =       1.73 minutes
	system time =       2.31 seconds =       0.04 minutes
	total time  =         28 seconds =       0.47 minutes
Total time:
	user time   =     103.65 seconds =       1.73 minutes
	system time =       2.31 seconds =       0.04 minutes
	total time  =         28 seconds =       0.47 minutes

*** tstart() called on dakota
*** at Thu Sep 27 09:43:29 2018


         ------------------------------------------------------------
                                   SCF GRAD                          
                          Rob Parrish, Justin Turney,                
                       Andy Simmonett, and Alex Sokolov              
         ------------------------------------------------------------

  ==> Geometry <==

    Molecular point group: c1
    Full point group: C1

    Geometry (in Angstrom), charge = 0, multiplicity = 1:

       Center              X                  Y                   Z               Mass       
    ------------   -----------------  -----------------  -----------------  -----------------
           C         -0.256462693927    -1.213472402603     0.206641923359    12.000000000000
           O         -1.101462693927     0.704527597397     1.361641923359    15.994914619560
           C         -0.237462693927     0.147527597397     0.483641923359    12.000000000000
           C          0.719537306073     0.942527597397    -0.118358076641    12.000000000000
           H          0.746537306073     1.988527597397     0.114641923359     1.007825032070
           O         -4.181462693927     2.302527597397     1.835641923359    15.994914619560
           C          1.646537306073     0.401527597397    -0.993358076641    12.000000000000
           C          1.618537306073    -0.956472402603    -1.270358076641    12.000000000000
           C          0.666537306073    -1.758472402603    -0.664358076641    12.000000000000
           H          0.648537306073    -2.809472402603    -0.871358076641     1.007825032070
           C         -2.322462693927     1.139527597397     0.836641923359    12.000000000000
           H         -2.909462693927     0.313527597397     0.455641923359     1.007825032070
           H         -2.173462693927     1.848527597397     0.028641923359     1.007825032070
           C         -3.105462693927     1.826527597397     1.930641923359    12.000000000000
           O         -2.398462693927     1.808527597397     3.057641923359    15.994914619560
           H         -2.906462693927     2.237527597397     3.740641923359     1.007825032070
          CL          2.747537306073    -1.696472402603    -2.354358076641    34.968852682000
          CL         -1.424462693927    -2.248472402603     0.961641923359    34.968852682000
          CL          2.816537306073     1.457527597397    -1.709358076641    34.968852682000

  Nuclear repulsion = 1170.598933865178651

  ==> Basis Set <==

  Basis Set: file /usr/local/software/miniconda2/envs/p4env/share/psi4/basis/6-31g_d_.gbs
    Number of shells: 100
    Number of basis function: 232
    Number of Cartesian functions: 232
    Spherical Harmonics?: false
    Max angular momentum: 2

  ==> DFJKGrad: Density-Fitted SCF Gradients <==

    Gradient:                    1
    J tasked:                  Yes
    K tasked:                  Yes
    wK tasked:                  No
    OpenMP threads:              8
    Integrals threads:           8
    Memory (MB):             14305
    Schwarz Cutoff:          0E+00
    Fitting Condition:       1E-12

   => Auxiliary Basis Set <=

  Basis Set: file /usr/local/software/miniconda2/envs/p4env/share/psi4/basis/cc-pvdz-jkfit.gbs
    Number of shells: 417
    Number of basis function: 1406
    Number of Cartesian functions: 1406
    Spherical Harmonics?: false
    Max angular momentum: 3


  -Total Gradient:
     Atom            X                  Y                   Z
    ------   -----------------  -----------------  -----------------
       1       -0.000816992072    -0.000286445300     0.000620697820
       2       -0.003918626398     0.003559076752     0.005351219854
       3       -0.000159601006     0.000935280095     0.000941138788
       4       -0.000793752635     0.001100868562     0.000764738747
       5        0.000066452450    -0.000543179820    -0.000029665193
       6        0.005847979684    -0.001479833252     0.008567791147
       7        0.000341135928    -0.000888295858    -0.000506642331
       8       -0.000003523467     0.000132637063     0.000084424251
       9        0.000718686551    -0.000642082107    -0.000801394466
      10       -0.000053415162     0.000393305339     0.000149805046
      11        0.006186015840    -0.003288656726     0.006720791968
      12        0.000741810742     0.000147110073    -0.000218740106
      13        0.000021119797     0.000082362995     0.000004695456
      14       -0.020582313876     0.007577484257    -0.020610118296
      15        0.011658847521    -0.007242149697    -0.001902174090
      16        0.000539649615     0.000122356500     0.001010882400
      17       -0.000094641401     0.000058903745     0.000077727036
      18        0.000096954748     0.000036226295    -0.000090747563
      19        0.000204213278     0.000225031271    -0.000134430477


*** tstop() called on dakota at Thu Sep 27 09:43:43 2018
Module time:
	user time   =      51.90 seconds =       0.87 minutes
	system time =       0.95 seconds =       0.02 minutes
	total time  =         14 seconds =       0.23 minutes
Total time:
	user time   =     155.55 seconds =       2.59 minutes
	system time =       3.26 seconds =       0.05 minutes
	total time  =         42 seconds =       0.70 minutes

			-----------------------------------------
			 OPTKING 2.0: for geometry optimizations 
			  - R.A. King,  Bethel University        
			-----------------------------------------

	Internal coordinates to be generated automatically.
	Detected frag 1 with atoms:  1 2 3 4 5 6 7 8 9 10 11 12 13 14 15 16 17 18 19
	---Fragment 1 Bond Connectivity---
	 1 : 3 9 18
	 2 : 3 11
	 3 : 1 2 4
	 4 : 3 5 7
	 5 : 4
	 6 : 14
	 7 : 4 8 19
	 8 : 7 9 17
	 9 : 1 8 10
	 10 : 9
	 11 : 2 12 13 14
	 12 : 11
	 13 : 11
	 14 : 6 11 15
	 15 : 14 16
	 16 : 15
	 17 : 8
	 18 : 1
	 19 : 7

	---Fragment 1 Geometry and Gradient---
	 C          -0.4846442548       -2.2931305107        0.3904966427
	 O          -2.0814628371        1.3313642121        2.5731303262
	 C          -0.4487394583        0.2787867561        0.9139507815
	 C           1.3597284509        1.7811190318       -0.2236643505
	 H           1.4107510565        3.7577725668        0.2166418385
	 O          -7.9018193264        4.3511465725        3.4688605132
	 C           3.1115045761        0.7587771939       -1.8771747167
	 C           3.0585922443       -1.8074708946       -2.4006288556
	 C           1.2595729658       -3.3230312532       -1.2554548190
	 H           1.2255578954       -5.3091334188       -1.6466281285
	 C          -4.3888184454        2.1533950799        1.5810241064
	 H          -5.4980876854        0.5924812942        0.8610384498
	 H          -4.1072492516        3.4932109082        0.0541253911
	 C          -5.8684740074        3.4516369332        3.6483844958
	 O          -4.5324376315        3.4176218628        5.7781058476
	 H          -5.4924185070        4.2283143739        7.0687887963
	 CL          5.1920930484       -3.2058682329       -4.4490919836
	 CL         -2.6918443780       -4.2489970583        1.8172398730
	 CL          5.3224841515        2.7543279902       -3.2302186279
	            -0.0008169921       -0.0002864453        0.0006206978
	            -0.0039186264        0.0035590768        0.0053512199
	            -0.0001596010        0.0009352801        0.0009411388
	            -0.0007937526        0.0011008686        0.0007647387
	             0.0000664524       -0.0005431798       -0.0000296652
	             0.0058479797       -0.0014798333        0.0085677911
	             0.0003411359       -0.0008882959       -0.0005066423
	            -0.0000035235        0.0001326371        0.0000844243
	             0.0007186866       -0.0006420821       -0.0008013945
	            -0.0000534152        0.0003933053        0.0001498050
	             0.0061860158       -0.0032886567        0.0067207920
	             0.0007418107        0.0001471101       -0.0002187401
	             0.0000211198        0.0000823630        0.0000046955
	            -0.0205823139        0.0075774843       -0.0206101183
	             0.0116588475       -0.0072421497       -0.0019021741
	             0.0005396496        0.0001223565        0.0010108824
	            -0.0000946414        0.0000589037        0.0000777270
	             0.0000969547        0.0000362263       -0.0000907476
	             0.0002042133        0.0002250313       -0.0001344305

	Previous optimization step data not found.  Starting new optimization.

	---Fragment 1 Intrafragment Coordinates---
	 - Coordinate -           - BOHR/RAD -       - ANG/DEG -
	 R(1,3)           =         2.624891	       1.389032
	 R(1,9)           =         2.610009	       1.381157
	 R(1,18)          =         3.276086	       1.733630
	 R(2,3)           =         2.554718	       1.351898
	 R(2,11)          =         2.642707	       1.398460
	 R(3,4)           =         2.611844	       1.382128
	 R(4,5)           =         2.025742	       1.071977
	 R(4,7)           =         2.616868	       1.384787
	 R(6,14)          =         2.230659	       1.180414
	 R(7,8)           =         2.619625	       1.386246
	 R(7,19)          =         3.271297	       1.731096
	 R(8,9)           =         2.616260	       1.384465
	 R(8,17)          =         3.271627	       1.731270
	 R(9,10)          =         2.024543	       1.071342
	 R(11,12)         =         2.045803	       1.082592
	 R(11,13)         =         2.050807	       1.085240
	 R(11,14)         =         2.854609	       1.510594
	 R(14,15)         =         2.514332	       1.330527
	 R(15,16)         =         1.801291	       0.953202
	 B(1,3,2)         =         2.122890	     121.632615
	 B(1,3,4)         =         2.078536	     119.091369
	 B(1,9,8)         =         2.102476	     120.462985
	 B(1,9,10)        =         2.091769	     119.849529
	 B(2,3,4)         =         2.081061	     119.236009
	 B(2,11,12)       =         1.947869	     111.604695
	 B(2,11,13)       =         1.942122	     111.275378
	 B(2,11,14)       =         1.898793	     108.792836
	 B(3,1,9)         =         2.098154	     120.215389
	 B(3,1,18)        =         2.102883	     120.486326
	 B(3,2,11)        =         2.029009	     116.253670
	 B(3,4,5)         =         2.076050	     118.948930
	 B(3,4,7)         =         2.110651	     120.931411
	 B(4,7,8)         =         2.089152	     119.699564
	 B(4,7,19)        =         2.066294	     118.389900
	 B(5,4,7)         =         2.096343	     120.111586
	 B(6,14,11)       =         2.211297	     126.697957
	 B(6,14,15)       =         2.162759	     123.916961
	 B(7,8,9)         =         2.087373	     119.597678
	 B(7,8,17)        =         2.130180	     122.050342
	 B(8,7,19)        =         2.127738	     121.910406
	 B(8,9,10)        =         2.088937	     119.687277
	 B(9,1,18)        =         2.082086	     119.294757
	 B(9,8,17)        =         2.065624	     118.351535
	 B(11,14,15)      =         1.909066	     109.381414
	 B(12,11,13)      =         1.886919	     108.112509
	 B(12,11,14)      =         1.897391	     108.712510
	 B(13,11,14)      =         1.889414	     108.255473
	 B(14,15,16)      =         1.894046	     108.520862
	 D(1,3,2,11)      =        -1.552427	     -88.947508
	 D(1,3,4,5)       =        -3.116948	    -178.587993
	 D(1,3,4,7)       =         0.006623	       0.379488
	 D(1,9,8,7)       =         0.005593	       0.320466
	 D(1,9,8,17)      =        -3.140148	    -179.917212
	 D(2,3,1,9)       =        -3.106667	    -177.998908
	 D(2,3,1,18)      =         0.022916	       1.313017
	 D(2,3,4,5)       =        -0.014843	      -0.850422
	 D(2,3,4,7)       =         3.108729	     178.117058
	 D(2,11,14,6)     =        -3.130333	    -179.354841
	 D(2,11,14,15)    =        -0.000593	      -0.033966
	 D(3,1,9,8)       =        -0.000527	      -0.030205
	 D(3,1,9,10)      =         3.138149	     179.802676
	 D(3,2,11,12)     =         1.125354	      64.478009
	 D(3,2,11,13)     =        -0.984162	     -56.388333
	 D(3,2,11,14)     =        -3.064297	    -175.571278
	 D(3,4,7,8)       =        -0.001603	      -0.091842
	 D(3,4,7,19)      =        -3.140953	    -179.963344
	 D(4,3,1,9)       =        -0.005544	      -0.317666
	 D(4,3,1,18)      =         3.124039	     178.994259
	 D(4,3,2,11)      =         1.629693	      93.374521
	 D(4,7,8,9)       =        -0.004527	      -0.259405
	 D(4,7,8,17)      =         3.141372	     179.987378
	 D(5,4,7,8)       =         3.121760	     178.863699
	 D(5,4,7,19)      =        -0.017589	      -1.007803
	 D(6,14,11,12)    =        -1.005757	     -57.625622
	 D(6,14,11,13)    =         1.040065	      59.591307
	 D(6,14,15,16)    =        -0.002667	      -0.152820
	 D(7,8,9,10)      =        -3.133087	    -179.512685
	 D(8,9,1,18)      =        -3.130253	    -179.350307
	 D(9,8,7,19)      =         3.134741	     179.607426
	 D(10,9,1,18)     =         0.008423	       0.482574
	 D(10,9,8,17)     =         0.004357	       0.249637
	 D(11,14,15,16)   =        -3.132808	    -179.496652
	 D(12,11,14,15)   =         2.123983	     121.695254
	 D(13,11,14,15)   =        -2.113381	    -121.087817
	 D(17,8,7,19)     =        -0.002545	      -0.145791
	 R(11,18)         =         6.627680	       3.507217

	Current energy   :     -1908.8752437007

	Generating empirical Hessian (Schlegel '84) for each fragment.
	Taking RFO optimization step.
	Going to follow RFO solution 1.
	Using RFO vector 1.
	Norm of target step-size    0.20707
	Projected energy change by RFO approximation:        -0.0059197901

	Back-transformation to cartesian coordinates...
	Successfully converged to displaced geometry.

	--- Internal Coordinate Step in ANG or DEG, aJ/ANG or AJ/DEG ---
	 ---------------------------------------------------------------------------
	   Coordinate                Previous        Force       Change         New 
	   ----------                --------       ------       ------       ------
	    1 R(1,3)          =      1.389032    -0.004347    -0.000550     1.388482
	    2 R(1,9)          =      1.381157    -0.006805    -0.000880     1.380278
	    3 R(1,18)         =      1.733630     0.000884     0.000188     1.733818
	    4 R(2,3)          =      1.351898     0.009930     0.001172     1.353071
	    5 R(2,11)         =      1.398460     0.022124     0.003066     1.401526
	    6 R(3,4)          =      1.382128     0.001284     0.000159     1.382288
	    7 R(4,5)          =      1.071977     0.004406     0.000749     1.072726
	    8 R(4,7)          =      1.384787    -0.007531    -0.000987     1.383800
	    9 R(6,14)         =      1.180414     0.054515     0.003016     1.183430
	   10 R(7,8)          =      1.386246     0.001562     0.000213     1.386459
	   11 R(7,19)         =      1.731096    -0.002726    -0.000528     1.730568
	   12 R(8,9)          =      1.384465     0.000823     0.000115     1.384580
	   13 R(8,17)         =      1.731270     0.001117     0.000216     1.731487
	   14 R(9,10)         =      1.071342     0.003410     0.000579     1.071921
	   15 R(11,12)        =      1.082592     0.003604     0.000635     1.083227
	   16 R(11,13)        =      1.085240    -0.000438    -0.000078     1.085162
	   17 R(11,14)        =      1.510594     0.070171     0.014053     1.524647
	   18 R(14,15)        =      1.330527    -0.047976    -0.005122     1.325405
	   19 R(15,16)        =      0.953202    -0.004052    -0.000451     0.952751
	   20 B(1,3,2)        =    121.632615    -0.000010    -0.003518   121.629097
	   21 B(1,3,4)        =    119.091369    -0.000008    -0.003105   119.088263
	   22 B(1,9,8)        =    120.462985    -0.000001    -0.050544   120.412441
	   23 B(1,9,10)       =    119.849529     0.000008     0.050395   119.899924
	   24 B(2,3,4)        =    119.236009     0.000017     0.003483   119.239492
	   25 B(2,11,12)      =    111.604695    -0.000336    -0.920334   110.684361
	   26 B(2,11,13)      =    111.275378    -0.000352    -0.882591   110.392787
	   27 B(2,11,14)      =    108.792836     0.001275     4.509226   113.302062
	   28 B(3,1,9)        =    120.215389     0.000014     0.052745   120.268135
	   29 B(3,1,18)       =    120.486326    -0.000018    -0.012742   120.473584
	   30 B(3,2,11)       =    116.253670    -0.000059    -0.403231   115.850439
	   31 B(3,4,5)        =    118.948930    -0.000005     0.010489   118.959419
	   32 B(3,4,7)        =    120.931411     0.000010    -0.015354   120.916057
	   33 B(4,7,8)        =    119.699564    -0.000007     0.003237   119.702802
	   34 B(4,7,19)       =    118.389900     0.000007    -0.035047   118.354853
	   35 B(5,4,7)        =    120.111586    -0.000004     0.005884   120.117470
	   36 B(6,14,11)      =    126.697957    -0.001779    -5.001935   121.696022
	   37 B(6,14,15)      =    123.916961    -0.000412    -1.705992   122.210969
	   38 B(7,8,9)        =    119.597678    -0.000008     0.013110   119.610788
	   39 B(7,8,17)       =    122.050342     0.000004     0.031239   122.081582
	   40 B(8,7,19)       =    121.910406     0.000000     0.031814   121.942219
	   41 B(8,9,10)       =    119.687277    -0.000006     0.000180   119.687457
	   42 B(9,1,18)       =    119.294757     0.000004    -0.040322   119.254435
	   43 B(9,8,17)       =    118.351535     0.000004    -0.044407   118.307128
	   44 B(11,14,15)     =    109.381414     0.002192     6.613500   115.994914
	   45 B(12,11,13)     =    108.112509     0.000088    -0.727649   107.384861
	   46 B(12,11,14)     =    108.712510    -0.000395    -1.359457   107.353053
	   47 B(13,11,14)     =    108.255473    -0.000298    -0.777579   107.477894
	   48 B(14,15,16)     =    108.520862    -0.000142    -0.665351   107.855511
	   49 D(1,3,2,11)     =    -88.947508    -0.000002    -0.226827   -89.174335
	   50 D(1,3,4,5)      =   -178.587993    -0.000001    -0.089469  -178.677462
	   51 D(1,3,4,7)      =      0.379488    -0.000000    -0.022035     0.357453
	   52 D(1,9,8,7)      =      0.320466     0.000000     0.004295     0.324761
	   53 D(1,9,8,17)     =   -179.917212    -0.000000    -0.010317  -179.927529
	   54 D(2,3,1,9)      =   -177.998908     0.000001     0.110051  -177.888856
	   55 D(2,3,1,18)     =      1.313017     0.000001     0.079356     1.392372
	   56 D(2,3,4,5)      =     -0.850422    -0.000002    -0.176619    -1.027041
	   57 D(2,3,4,7)      =    178.117058    -0.000001    -0.109184   178.007873
	   58 D(2,11,14,6)    =   -179.354841    -0.000007    -1.856659  -181.211500
	   59 D(2,11,14,15)   =     -0.033966     0.000011     2.348570     2.314605
	   60 D(3,1,9,8)      =     -0.030205    -0.000000    -0.012255    -0.042460
	   61 D(3,1,9,10)     =    179.802676    -0.000000     0.000595   179.803271
	   62 D(3,2,11,12)    =     64.478009    -0.000041    -1.657686    62.820324
	   63 D(3,2,11,13)    =    -56.388333     0.000043     0.452148   -55.936185
	   64 D(3,2,11,14)    =   -175.571278    -0.000010    -0.961828  -176.533106
	   65 D(3,4,7,8)      =     -0.091842     0.000000     0.014220    -0.077622
	   66 D(3,4,7,19)     =   -179.963344     0.000000     0.012263  -179.951080
	   67 D(4,3,1,9)      =     -0.317666     0.000000     0.020902    -0.296763
	   68 D(4,3,1,18)     =    178.994259    -0.000000    -0.009794   178.984465
	   69 D(4,3,2,11)     =     93.374521    -0.000001    -0.137397    93.237123
	   70 D(4,7,8,9)      =     -0.259405    -0.000000    -0.005205    -0.264610
	   71 D(4,7,8,17)     =    179.987378     0.000000     0.010165   179.997543
	   72 D(5,4,7,8)      =    178.863699     0.000001     0.082475   178.946174
	   73 D(5,4,7,19)     =     -1.007803     0.000001     0.080518    -0.927284
	   74 D(6,14,11,12)   =    -57.625622     0.000022    -1.071038   -58.696660
	   75 D(6,14,11,13)   =     59.591307    -0.000041    -3.037225    56.554082
	   76 D(6,14,15,16)   =     -0.152820     0.000009     2.285290     2.132470
	   77 D(7,8,9,10)     =   -179.512685    -0.000000    -0.008612  -179.521297
	   78 D(8,9,1,18)     =   -179.350307     0.000000     0.017889  -179.332418
	   79 D(9,8,7,19)     =    179.607426    -0.000000    -0.003266   179.604160
	   80 D(10,9,1,18)    =      0.482574     0.000000     0.030739     0.513313
	   81 D(10,9,8,17)    =      0.249637    -0.000000    -0.023224     0.226413
	   82 D(11,14,15,16)  =   -179.496652    -0.000006    -1.916830  -181.413483
	   83 D(12,11,14,15)  =    121.695254     0.000040     3.134191   124.829445
	   84 D(13,11,14,15)  =   -121.087817    -0.000023     1.168003  -119.919814
	   85 D(17,8,7,19)    =     -0.145791     0.000000     0.012104    -0.133687
	   86 R(11,18)        =      3.507217     0.000376     0.001256     3.508474
	 ---------------------------------------------------------------------------
	Successfully symmetrized geometry.

  ==> Convergence Check <==

  Measures of convergence in internal coordinates in au.
  Criteria marked as inactive (o), active & met (*), and active & unmet ( ).
  --------------------------------------------------------------------------------------------- ~
   Step     Total Energy     Delta E     MAX Force     RMS Force      MAX Disp      RMS Disp    ~
  --------------------------------------------------------------------------------------------- ~
    Convergence Criteria             o    1.50e-05 *    1.00e-05 *    6.00e-05 *    4.00e-05 *  ~
  --------------------------------------------------------------------------------------------- ~
      1   -1908.87524370   -1.91e+03 o    2.88e-02      4.78e-03      1.15e-01      2.26e-02    ~
  ---------------------------------------------------------------------------------------------

	Writing optimization data to binary file.
	Structure for next step:
	Cartesian Geometry (in Angstrom)
	    C    -0.2581221503  -1.2474648564   0.3811331631
	    O    -1.0318139875   0.7966051688   1.3570056489
	    C    -0.1952800416   0.1319225866   0.5268202029
	    C     0.7783519220   0.8361653885  -0.1564086172
	    H     0.8386023348   1.8991888565  -0.0256710426
	    O    -4.1490282948   2.4804414440   1.4255272469
	    C     1.6782297315   0.1860722742  -0.9825446941
	    C     1.6062623483  -1.1908386333  -1.1281632919
	    C     0.6373866974  -1.9017964446  -0.4404994981
	    H     0.5855196072  -2.9672330311  -0.5461837776
	    C    -2.2439919241   1.2183081260   0.7939179220
	    H    -2.8335250758   0.3678223778   0.4737527500
	    H    -2.0607315348   1.8335898524  -0.0809654788
	    C    -3.1041980327   2.0322834426   1.7541467393
	    O    -2.5790855387   2.2665766804   2.9483249491
	    H    -3.1983551729   2.7974145331   3.4407183534
	   CL     2.7002749507  -2.0664709374  -2.1452427920
	   CL    -1.4480624722  -2.1692285461   1.2416667394
	   CL     2.8707754487   1.1326660683  -1.8051379790
			--------------------------
			 OPTKING Finished Execution 
			--------------------------

    Structure for next step:
    Molecular point group: c1
    Full point group: C1

    Geometry (in Angstrom), charge = 0, multiplicity = 1:

    C           -0.258593799600    -1.187990402754     0.344855681313
    O           -1.032285636775     0.856079622475     1.320728167135
    C           -0.195751690838     0.191397040275     0.490542721155
    C            0.777880272747     0.895639842165    -0.192686098978
    H            0.838130685532     1.958663310167    -0.061948524360
    O           -4.149499944096     2.539915897608     1.389249765186
    C            1.677758082255     0.245546727864    -1.018822175814
    C            1.605790699046    -1.131364179698    -1.164440773639
    C            0.636915048115    -1.842321990940    -0.476776979820
    H            0.585047957937    -2.907758577511    -0.582461259323
    C           -2.244463573355     1.277782579579     0.757640440265
    H           -2.833996725098     0.427296831379     0.437475268247
    H           -2.061203184057     1.893064306006    -0.117242960580
    C           -3.104669681975     2.091757896238     1.717869257539
    O           -2.579557187994     2.326051134058     2.912047467380
    H           -3.198826822158     2.856888986776     3.404440871660
    CL           2.699803301406    -2.006996483754    -2.181520273774
    CL          -1.448534121488    -2.109754092453     1.205389257617
    CL           2.870303799417     1.192140521967    -1.841415460788

gradient() will perform analytic gradient computation.

*** tstart() called on dakota
*** at Thu Sep 27 09:43:43 2018


         ---------------------------------------------------------
                                   SCF
            by Justin Turney, Rob Parrish, and Andy Simmonett
                              RHF Reference
                        8 Threads,  20000 MiB Core
         ---------------------------------------------------------

  ==> Geometry <==

    Molecular point group: c1
    Full point group: C1

    Geometry (in Angstrom), charge = 0, multiplicity = 1:

       Center              X                  Y                   Z               Mass       
    ------------   -----------------  -----------------  -----------------  -----------------
           C         -0.258593799600    -1.187990402754     0.344855681313    12.000000000000
           O         -1.032285636775     0.856079622475     1.320728167135    15.994914619560
           C         -0.195751690838     0.191397040275     0.490542721155    12.000000000000
           C          0.777880272747     0.895639842165    -0.192686098978    12.000000000000
           H          0.838130685532     1.958663310167    -0.061948524360     1.007825032070
           O         -4.149499944096     2.539915897608     1.389249765186    15.994914619560
           C          1.677758082255     0.245546727864    -1.018822175814    12.000000000000
           C          1.605790699046    -1.131364179698    -1.164440773639    12.000000000000
           C          0.636915048115    -1.842321990940    -0.476776979820    12.000000000000
           H          0.585047957937    -2.907758577511    -0.582461259323     1.007825032070
           C         -2.244463573355     1.277782579579     0.757640440265    12.000000000000
           H         -2.833996725098     0.427296831379     0.437475268247     1.007825032070
           H         -2.061203184057     1.893064306006    -0.117242960580     1.007825032070
           C         -3.104669681975     2.091757896238     1.717869257539    12.000000000000
           O         -2.579557187994     2.326051134058     2.912047467380    15.994914619560
           H         -3.198826822158     2.856888986776     3.404440871660     1.007825032070
          CL          2.699803301406    -2.006996483754    -2.181520273774    34.968852682000
          CL         -1.448534121488    -2.109754092453     1.205389257617    34.968852682000
          CL          2.870303799417     1.192140521967    -1.841415460788    34.968852682000

  Running in c1 symmetry.

  Rotational constants: A =      0.02717  B =      0.00810  C =      0.00652 [cm^-1]
  Rotational constants: A =    814.56023  B =    242.96081  C =    195.59794 [MHz]
  Nuclear repulsion = 1165.314291091478253

  Charge       = 0
  Multiplicity = 1
  Electrons    = 128
  Nalpha       = 64
  Nbeta        = 64

  ==> Algorithm <==

  SCF Algorithm Type is DF.
  DIIS enabled.
  MOM disabled.
  Fractional occupation disabled.
  Guess Type is READ.
  Energy threshold   = 1.00e-08
  Density threshold  = 1.00e-08
  Integral threshold = 0.00e+00

  ==> Primary Basis <==

  Basis Set: file /usr/local/software/miniconda2/envs/p4env/share/psi4/basis/6-31g_d_.gbs
    Number of shells: 100
    Number of basis function: 232
    Number of Cartesian functions: 232
    Spherical Harmonics?: false
    Max angular momentum: 2

  Reading orbitals from file 180, no projection.

  ==> Pre-Iterations <==

   -------------------------------------------------------
    Irrep   Nso     Nmo     Nalpha   Nbeta   Ndocc  Nsocc
   -------------------------------------------------------
     A        232     232       0       0       0       0
   -------------------------------------------------------
    Total     232     232      64      64      64       0
   -------------------------------------------------------

  ==> Integral Setup <==

  ==> DFJK: Density-Fitted J/K Matrices <==

    J tasked:                  Yes
    K tasked:                  Yes
    wK tasked:                  No
    OpenMP threads:              8
    Integrals threads:           8
    Memory (MB):             14305
    Algorithm:                Core
    Integral Cache:           NONE
    Schwarz Cutoff:          1E-12
    Fitting Condition:       1E-12

   => Auxiliary Basis Set <=

  Basis Set: file /usr/local/software/miniconda2/envs/p4env/share/psi4/basis/cc-pvdz-jkfit.gbs
    Number of shells: 417
    Number of basis function: 1406
    Number of Cartesian functions: 1406
    Spherical Harmonics?: false
    Max angular momentum: 3

  Minimum eigenvalue in the overlap matrix is 3.6792669015E-04.
  Using Symmetric Orthogonalization.

  SCF Guess: Orbitals guess was supplied from a previous computation.

  ==> Iterations <==

                           Total Energy        Delta E     RMS |[F,P]|

   @DF-RHF iter   0: -1908.72061313834365   -1.90872e+03   2.99544e-03 
   @DF-RHF iter   1: -1908.86841120178929   -1.47798e-01   4.41881e-04 
   @DF-RHF iter   2: -1908.87617656524844   -7.76536e-03   1.56513e-04 DIIS
   @DF-RHF iter   3: -1908.87714700498668   -9.70440e-04   6.22092e-05 DIIS
   @DF-RHF iter   4: -1908.87734580624942   -1.98801e-04   1.92874e-05 DIIS
   @DF-RHF iter   5: -1908.87736609296917   -2.02867e-05   8.94138e-06 DIIS
   @DF-RHF iter   6: -1908.87737383256263   -7.73959e-06   2.96748e-06 DIIS
   @DF-RHF iter   7: -1908.87737460229960   -7.69737e-07   1.46472e-06 DIIS
   @DF-RHF iter   8: -1908.87737480485021   -2.02551e-07   5.11697e-07 DIIS
   @DF-RHF iter   9: -1908.87737483449928   -2.96491e-08   1.74426e-07 DIIS
   @DF-RHF iter  10: -1908.87737483763476   -3.13548e-09   6.50564e-08 DIIS
   @DF-RHF iter  11: -1908.87737483792466   -2.89901e-10   2.16313e-08 DIIS
   @DF-RHF iter  12: -1908.87737483795627   -3.16049e-11   6.92399e-09 DIIS

  ==> Post-Iterations <==

    Orbital Energies (a.u.)
    -----------------------

    Doubly Occupied:                                                      

       1A   -104.850646     2A   -104.849345     3A   -104.848255  
       4A    -20.628858     5A    -20.617239     6A    -20.568806  
       7A    -11.405552     8A    -11.340119     9A    -11.338936  
      10A    -11.335678    11A    -11.330956    12A    -11.326171  
      13A    -11.285844    14A    -11.278162    15A    -10.583691  
      16A    -10.582610    17A    -10.581474    18A     -8.053139  
      19A     -8.052054    20A     -8.050920    21A     -8.049676  
      22A     -8.049611    23A     -8.048518    24A     -8.048496  
      25A     -8.047378    26A     -8.047373    27A     -1.496327  
      28A     -1.451012    29A     -1.385294    30A     -1.246518  
      31A     -1.188923    32A     -1.156363    33A     -1.116286  
      34A     -1.055759    35A     -1.022410    36A     -0.981869  
      37A     -0.885587    38A     -0.856014    39A     -0.831349  
      40A     -0.746592    41A     -0.741468    42A     -0.724197  
      43A     -0.706870    44A     -0.684972    45A     -0.677163  
      46A     -0.651765    47A     -0.625727    48A     -0.621378  
      49A     -0.611028    50A     -0.592738    51A     -0.577722  
      52A     -0.566768    53A     -0.559818    54A     -0.531090  
      55A     -0.503376    56A     -0.502665    57A     -0.488229  
      58A     -0.478569    59A     -0.471952    60A     -0.466011  
      61A     -0.461528    62A     -0.459226    63A     -0.369204  
      64A     -0.348789  

    Virtual:                                                              

      65A      0.093816    66A      0.102935    67A      0.146883  
      68A      0.174831    69A      0.201991    70A      0.215812  
      71A      0.232836    72A      0.246080    73A      0.280832  
      74A      0.293541    75A      0.302450    76A      0.319634  
      77A      0.327030    78A      0.380205    79A      0.414322  
      80A      0.426627    81A      0.434461    82A      0.466249  
      83A      0.473284    84A      0.477841    85A      0.516593  
      86A      0.527699    87A      0.546239    88A      0.579756  
      89A      0.583712    90A      0.596079    91A      0.600221  
      92A      0.618050    93A      0.622139    94A      0.637887  
      95A      0.651339    96A      0.658314    97A      0.669846  
      98A      0.682868    99A      0.700328   100A      0.718743  
     101A      0.734845   102A      0.760669   103A      0.768141  
     104A      0.782043   105A      0.792399   106A      0.807157  
     107A      0.811812   108A      0.848079   109A      0.854090  
     110A      0.872160   111A      0.888044   112A      0.926173  
     113A      0.940662   114A      0.941495   115A      0.958807  
     116A      0.965704   117A      0.983424   118A      1.007992  
     119A      1.024999   120A      1.040991   121A      1.051381  
     122A      1.059615   123A      1.072226   124A      1.089396  
     125A      1.107205   126A      1.110002   127A      1.116238  
     128A      1.124298   129A      1.129307   130A      1.132310  
     131A      1.136058   132A      1.140541   133A      1.169564  
     134A      1.186088   135A      1.195216   136A      1.202156  
     137A      1.217032   138A      1.226312   139A      1.244888  
     140A      1.259476   141A      1.280146   142A      1.288026  
     143A      1.316301   144A      1.321667   145A      1.333028  
     146A      1.350437   147A      1.365614   148A      1.392234  
     149A      1.412998   150A      1.426238   151A      1.431611  
     152A      1.454154   153A      1.478843   154A      1.557350  
     155A      1.569685   156A      1.582611   157A      1.633072  
     158A      1.644833   159A      1.670534   160A      1.678527  
     161A      1.684920   162A      1.696308   163A      1.749396  
     164A      1.773156   165A      1.783288   166A      1.792772  
     167A      1.820145   168A      1.855631   169A      1.905397  
     170A      1.962649   171A      2.008353   172A      2.025308  
     173A      2.050740   174A      2.059557   175A      2.066670  
     176A      2.093472   177A      2.101035   178A      2.159183  
     179A      2.185376   180A      2.198884   181A      2.219934  
     182A      2.248177   183A      2.264045   184A      2.317156  
     185A      2.337182   186A      2.343402   187A      2.383934  
     188A      2.400389   189A      2.411690   190A      2.427271  
     191A      2.460133   192A      2.474552   193A      2.530739  
     194A      2.541696   195A      2.581367   196A      2.596456  
     197A      2.627477   198A      2.708571   199A      2.712841  
     200A      2.777279   201A      2.834832   202A      2.880443  
     203A      2.937367   204A      2.968027   205A      3.003333  
     206A      3.013679   207A      3.052020   208A      3.067255  
     209A      3.079525   210A      3.110058   211A      3.168287  
     212A      3.191083   213A      3.236054   214A      3.327573  
     215A      3.452846   216A      3.481740   217A      3.540606  
     218A      3.709272   219A      4.258436   220A      4.423867  
     221A      4.459633   222A      4.482348   223A      4.508662  
     224A      4.565358   225A      4.614344   226A      4.655587  
     227A      4.721937   228A      4.744927   229A      4.797637  
     230A      4.876959   231A      4.918681   232A      5.151260  

    Final Occupation by Irrep:
              A 
    DOCC [    64 ]

  Energy converged.

  @DF-RHF Final Energy: -1908.87737483795627

   => Energetics <=

    Nuclear Repulsion Energy =           1165.3142910914782533
    One-Electron Energy =               -4948.2991930073403637
    Two-Electron Energy =                1874.1075270779056154
    DFT Exchange-Correlation Energy =       0.0000000000000000
    Empirical Dispersion Energy =           0.0000000000000000
    PCM Polarization Energy =               0.0000000000000000
    EFP Energy =                            0.0000000000000000
    Total Energy =                      -1908.8773748379562676

    Alert: EFP and PCM quantities not currently incorporated into SCF psivars.

Properties will be evaluated at   0.000000,   0.000000,   0.000000 Bohr

Properties computed using the SCF density matrix

  Nuclear Dipole Moment: (a.u.)
     X:   -10.0640      Y:     6.6685      Z:     5.4939

  Electronic Dipole Moment: (a.u.)
     X:     9.9557      Y:    -6.5636      Z:    -5.3587

  Dipole Moment: (a.u.)
     X:    -0.1084      Y:     0.1049      Z:     0.1352     Total:     0.2026

  Dipole Moment: (Debye)
     X:    -0.2755      Y:     0.2666      Z:     0.3437     Total:     0.5149


*** tstop() called on dakota at Thu Sep 27 09:44:07 2018
Module time:
	user time   =      89.48 seconds =       1.49 minutes
	system time =       1.88 seconds =       0.03 minutes
	total time  =         24 seconds =       0.40 minutes
Total time:
	user time   =     245.66 seconds =       4.09 minutes
	system time =       5.19 seconds =       0.09 minutes
	total time  =         66 seconds =       1.10 minutes

*** tstart() called on dakota
*** at Thu Sep 27 09:44:07 2018


         ------------------------------------------------------------
                                   SCF GRAD                          
                          Rob Parrish, Justin Turney,                
                       Andy Simmonett, and Alex Sokolov              
         ------------------------------------------------------------

  ==> Geometry <==

    Molecular point group: c1
    Full point group: C1

    Geometry (in Angstrom), charge = 0, multiplicity = 1:

       Center              X                  Y                   Z               Mass       
    ------------   -----------------  -----------------  -----------------  -----------------
           C         -0.258593799600    -1.187990402754     0.344855681313    12.000000000000
           O         -1.032285636775     0.856079622475     1.320728167135    15.994914619560
           C         -0.195751690838     0.191397040275     0.490542721155    12.000000000000
           C          0.777880272747     0.895639842165    -0.192686098978    12.000000000000
           H          0.838130685532     1.958663310167    -0.061948524360     1.007825032070
           O         -4.149499944096     2.539915897608     1.389249765186    15.994914619560
           C          1.677758082255     0.245546727864    -1.018822175814    12.000000000000
           C          1.605790699046    -1.131364179698    -1.164440773639    12.000000000000
           C          0.636915048115    -1.842321990940    -0.476776979820    12.000000000000
           H          0.585047957937    -2.907758577511    -0.582461259323     1.007825032070
           C         -2.244463573355     1.277782579579     0.757640440265    12.000000000000
           H         -2.833996725098     0.427296831379     0.437475268247     1.007825032070
           H         -2.061203184057     1.893064306006    -0.117242960580     1.007825032070
           C         -3.104669681975     2.091757896238     1.717869257539    12.000000000000
           O         -2.579557187994     2.326051134058     2.912047467380    15.994914619560
           H         -3.198826822158     2.856888986776     3.404440871660     1.007825032070
          CL          2.699803301406    -2.006996483754    -2.181520273774    34.968852682000
          CL         -1.448534121488    -2.109754092453     1.205389257617    34.968852682000
          CL          2.870303799417     1.192140521967    -1.841415460788    34.968852682000

  Nuclear repulsion = 1165.314291091478253

  ==> Basis Set <==

  Basis Set: file /usr/local/software/miniconda2/envs/p4env/share/psi4/basis/6-31g_d_.gbs
    Number of shells: 100
    Number of basis function: 232
    Number of Cartesian functions: 232
    Spherical Harmonics?: false
    Max angular momentum: 2

  ==> DFJKGrad: Density-Fitted SCF Gradients <==

    Gradient:                    1
    J tasked:                  Yes
    K tasked:                  Yes
    wK tasked:                  No
    OpenMP threads:              8
    Integrals threads:           8
    Memory (MB):             14305
    Schwarz Cutoff:          0E+00
    Fitting Condition:       1E-12

   => Auxiliary Basis Set <=

  Basis Set: file /usr/local/software/miniconda2/envs/p4env/share/psi4/basis/cc-pvdz-jkfit.gbs
    Number of shells: 417
    Number of basis function: 1406
    Number of Cartesian functions: 1406
    Spherical Harmonics?: false
    Max angular momentum: 3


  -Total Gradient:
     Atom            X                  Y                   Z
    ------   -----------------  -----------------  -----------------
       1        0.000331122874     0.000004882085    -0.000197458095
       2        0.002012394051    -0.002417156624    -0.004534550704
       3       -0.000457647418     0.000030408372    -0.000296201348
       4        0.000199099898     0.000222312911    -0.000021688986
       5        0.000015609854     0.000040082698    -0.000009299684
       6        0.007086771453     0.003617289988     0.007076749527
       7       -0.000121254618    -0.000400913819     0.000113634780
       8       -0.000064819596     0.000376765071     0.000105231334
       9       -0.000044147955    -0.000316658948     0.000031234777
      10       -0.000030832601    -0.000069200006     0.000017332391
      11        0.004862151708     0.001343288261     0.001231249823
      12        0.001293842427    -0.000686520395    -0.000756928561
      13        0.001499815807    -0.001843975075    -0.001754011400
      14       -0.013609381136    -0.007729788667    -0.007721625613
      15       -0.003206800230     0.007644262962     0.006036414219
      16        0.000247153480     0.000147789694     0.000782031503
      17       -0.000023973855    -0.000156460964    -0.000010239132
      18        0.000039641738     0.000015285923    -0.000126568260
      19       -0.000028745872     0.000178306581     0.000034693432


*** tstop() called on dakota at Thu Sep 27 09:44:20 2018
Module time:
	user time   =      52.31 seconds =       0.87 minutes
	system time =       0.93 seconds =       0.02 minutes
	total time  =         13 seconds =       0.22 minutes
Total time:
	user time   =     297.98 seconds =       4.97 minutes
	system time =       6.12 seconds =       0.10 minutes
	total time  =         79 seconds =       1.32 minutes

			-----------------------------------------
			 OPTKING 2.0: for geometry optimizations 
			  - R.A. King,  Bethel University        
			-----------------------------------------

	Previous internal coordinate definitions found.
	---Fragment 1 Geometry and Gradient---
	 C          -0.4886714609       -2.2449765097        0.6516827931
	 O          -1.9507371444        1.6177560344        2.4958145319
	 C          -0.3699170857        0.3616879888        0.9269913995
	 C           1.4699806797        1.6925140154       -0.3641239567
	 H           1.5838374592        3.7013372427       -0.1170657454
	 O          -7.8414184828        4.7997454470        2.6253015864
	 C           3.1705032927        0.4640160685       -1.9252948904
	 C           3.0345046479       -2.1379684562       -2.2004741601
	 C           1.2035950109       -3.4814840115       -0.9009779183
	 H           1.1055804151       -5.4948673720       -1.1006922631
	 C          -4.2414214689        2.4146591328        1.4317329393
	 H          -5.3554776719        0.8074739888        0.8267084469
	 H          -3.8951095221        3.5773730903       -0.2215570865
	 C          -5.8669754320        3.9528495602        3.2463024289
	 O          -4.8746566294        4.3955996145        5.5029721993
	 H          -6.0449066404        5.3987377771        6.4334608830
	 CL          5.1018888523       -3.7926737040       -4.1224758708
	 CL         -2.7373327838       -3.9868574425        2.2778555804
	 CL          5.4240880991        2.2528190984       -3.4797709178
	             0.0003311229        0.0000048821       -0.0001974581
	             0.0020123941       -0.0024171566       -0.0045345507
	            -0.0004576474        0.0000304084       -0.0002962013
	             0.0001990999        0.0002223129       -0.0000216890
	             0.0000156099        0.0000400827       -0.0000092997
	             0.0070867715        0.0036172900        0.0070767495
	            -0.0001212546       -0.0004009138        0.0001136348
	            -0.0000648196        0.0003767651        0.0001052313
	            -0.0000441480       -0.0003166589        0.0000312348
	            -0.0000308326       -0.0000692000        0.0000173324
	             0.0048621517        0.0013432883        0.0012312498
	             0.0012938424       -0.0006865204       -0.0007569286
	             0.0014998158       -0.0018439751       -0.0017540114
	            -0.0136093811       -0.0077297887       -0.0077216256
	            -0.0032068002        0.0076442630        0.0060364142
	             0.0002471535        0.0001477897        0.0007820315
	            -0.0000239739       -0.0001564610       -0.0000102391
	             0.0000396417        0.0000152859       -0.0001265683
	            -0.0000287459        0.0001783066        0.0000346934

	---Fragment 1 Intrafragment Coordinates---
	 - Coordinate -           - BOHR/RAD -       - ANG/DEG -
	 R(1,3)           =         2.623852	       1.388482
	 R(1,9)           =         2.608347	       1.380278
	 R(1,18)          =         3.276441	       1.733818
	 R(2,3)           =         2.556933	       1.353071
	 R(2,11)          =         2.648501	       1.401526
	 R(3,4)           =         2.612145	       1.382288
	 R(4,5)           =         2.027159	       1.072726
	 R(4,7)           =         2.615003	       1.383800
	 R(6,14)          =         2.236359	       1.183430
	 R(7,8)           =         2.620027	       1.386459
	 R(7,19)          =         3.270299	       1.730568
	 R(8,9)           =         2.616478	       1.384580
	 R(8,17)          =         3.272036	       1.731487
	 R(9,10)          =         2.025637	       1.071921
	 R(11,12)         =         2.047003	       1.083227
	 R(11,13)         =         2.050659	       1.085162
	 R(11,14)         =         2.881166	       1.524647
	 R(14,15)         =         2.504652	       1.325405
	 R(15,16)         =         1.800439	       0.952751
	 B(1,3,2)         =         2.122828	     121.629097
	 B(1,3,4)         =         2.078482	     119.088263
	 B(1,9,8)         =         2.101594	     120.412441
	 B(1,9,10)        =         2.092648	     119.899924
	 B(2,3,4)         =         2.081122	     119.239492
	 B(2,11,12)       =         1.931807	     110.684361
	 B(2,11,13)       =         1.926718	     110.392787
	 B(2,11,14)       =         1.977494	     113.302062
	 B(3,1,9)         =         2.099075	     120.268135
	 B(3,1,18)        =         2.102661	     120.473584
	 B(3,2,11)        =         2.021972	     115.850439
	 B(3,4,5)         =         2.076234	     118.959419
	 B(3,4,7)         =         2.110383	     120.916057
	 B(4,7,8)         =         2.089208	     119.702802
	 B(4,7,19)        =         2.065682	     118.354853
	 B(5,4,7)         =         2.096445	     120.117470
	 B(6,14,11)       =         2.123996	     121.696022
	 B(6,14,15)       =         2.132984	     122.210969
	 B(7,8,9)         =         2.087602	     119.610788
	 B(7,8,17)        =         2.130726	     122.081582
	 B(8,7,19)        =         2.128293	     121.942219
	 B(8,9,10)        =         2.088940	     119.687457
	 B(9,1,18)        =         2.081383	     119.254435
	 B(9,8,17)        =         2.064849	     118.307128
	 B(11,14,15)      =         2.024493	     115.994914
	 B(12,11,13)      =         1.874219	     107.384861
	 B(12,11,14)      =         1.873664	     107.353053
	 B(13,11,14)      =         1.875843	     107.477894
	 B(14,15,16)      =         1.882434	     107.855511
	 D(1,3,2,11)      =        -1.556386	     -89.174335
	 D(1,3,4,5)       =        -3.118510	    -178.677462
	 D(1,3,4,7)       =         0.006239	       0.357453
	 D(1,9,8,7)       =         0.005668	       0.324761
	 D(1,9,8,17)      =        -3.140328	    -179.927529
	 D(2,3,1,9)       =        -3.104746	    -177.888856
	 D(2,3,1,18)      =         0.024301	       1.392372
	 D(2,3,4,5)       =        -0.017925	      -1.027041
	 D(2,3,4,7)       =         3.106823	     178.007873
	 D(2,11,14,6)     =         3.120448	     178.788500
	 D(2,11,14,15)    =         0.040397	       2.314605
	 D(3,1,9,8)       =        -0.000741	      -0.042460
	 D(3,1,9,10)      =         3.138159	     179.803271
	 D(3,2,11,12)     =         1.096421	      62.820324
	 D(3,2,11,13)     =        -0.976271	     -55.936185
	 D(3,2,11,14)     =        -3.081084	    -176.533106
	 D(3,4,7,8)       =        -0.001355	      -0.077622
	 D(3,4,7,19)      =        -3.140739	    -179.951080
	 D(4,3,1,9)       =        -0.005179	      -0.296763
	 D(4,3,1,18)      =         3.123868	     178.984465
	 D(4,3,2,11)      =         1.627295	      93.237123
	 D(4,7,8,9)       =        -0.004618	      -0.264610
	 D(4,7,8,17)      =         3.141550	     179.997543
	 D(5,4,7,8)       =         3.123200	     178.946174
	 D(5,4,7,19)      =        -0.016184	      -0.927284
	 D(6,14,11,12)    =        -1.024450	     -58.696660
	 D(6,14,11,13)    =         0.987055	      56.554082
	 D(6,14,15,16)    =         0.037219	       2.132470
	 D(7,8,9,10)      =        -3.133238	    -179.521297
	 D(8,9,1,18)      =        -3.129941	    -179.332418
	 D(9,8,7,19)      =         3.134684	     179.604160
	 D(10,9,1,18)     =         0.008959	       0.513313
	 D(10,9,8,17)     =         0.003952	       0.226413
	 D(11,14,15,16)   =         3.116923	     178.586517
	 D(12,11,14,15)   =         2.178685	     124.829445
	 D(13,11,14,15)   =        -2.092996	    -119.919814
	 D(17,8,7,19)     =        -0.002333	      -0.133687
	 R(11,18)         =         6.630054	       3.508474

	Current energy   :     -1908.8773748380

	Energy change for the previous step:
		Projected    :        -0.0059197901
		Actual       :        -0.0021311372

	Performing BFGS update.
	Previous computed or guess Hessian on step 1.
	Steps to be used in Hessian update: 1
	Taking RFO optimization step.
	Going to follow RFO solution 1.
	Using RFO vector 1.
	Norm of target step-size    0.36971
	Projected energy change by RFO approximation:        -0.0082409810

	Back-transformation to cartesian coordinates...
	Successfully converged to displaced geometry.

	--- Internal Coordinate Step in ANG or DEG, aJ/ANG or AJ/DEG ---
	 ---------------------------------------------------------------------------
	   Coordinate                Previous        Force       Change         New 
	   ----------                --------       ------       ------       ------
	    1 R(1,3)          =      1.388482    -0.001436    -0.000435     1.388047
	    2 R(1,9)          =      1.380278     0.001102    -0.000162     1.380115
	    3 R(1,18)         =      1.733818     0.000806     0.000113     1.733930
	    4 R(2,3)          =      1.353071    -0.001177     0.000194     1.353265
	    5 R(2,11)         =      1.401526    -0.002997     0.000539     1.402065
	    6 R(3,4)          =      1.382288    -0.000395    -0.000005     1.382283
	    7 R(4,5)          =      1.072726    -0.000325     0.000182     1.072908
	    8 R(4,7)          =      1.383800     0.000502    -0.000235     1.383565
	    9 R(6,14)         =      1.183430     0.056452     0.003288     1.186718
	   10 R(7,8)          =      1.386459     0.000162     0.000103     1.386562
	   11 R(7,19)         =      1.730568    -0.000504    -0.000234     1.730334
	   12 R(8,9)          =      1.384580     0.000299     0.000078     1.384658
	   13 R(8,17)         =      1.731487    -0.000577    -0.000022     1.731465
	   14 R(9,10)         =      1.071921    -0.000565     0.000099     1.072020
	   15 R(11,12)        =      1.083227    -0.000483     0.000124     1.083352
	   16 R(11,13)        =      1.085162    -0.005124    -0.000727     1.084435
	   17 R(11,14)        =      1.524647    -0.092294    -0.010100     1.514548
	   18 R(14,15)        =      1.325405    -0.052301    -0.005820     1.319585
	   19 R(15,16)        =      0.952751    -0.002685    -0.000364     0.952387
	   20 B(1,3,2)        =    121.629097    -0.000016    -0.010050   121.619047
	   21 B(1,3,4)        =    119.088263     0.000009     0.022421   119.110685
	   22 B(1,9,8)        =    120.412441     0.000016    -0.043031   120.369410
	   23 B(1,9,10)       =    119.899924    -0.000005     0.069185   119.969109
	   24 B(2,3,4)        =    119.239492     0.000007    -0.006422   119.233071
	   25 B(2,11,12)      =    110.684361     0.000294     0.645064   111.329425
	   26 B(2,11,13)      =    110.392787     0.000342     0.806454   111.199241
	   27 B(2,11,14)      =    113.302062    -0.000737    -0.854592   112.447469
	   28 B(3,1,9)        =    120.268135    -0.000019     0.037509   120.305644
	   29 B(3,1,18)       =    120.473584     0.000003    -0.026945   120.446638
	   30 B(3,2,11)       =    115.850439     0.000041    -0.235357   115.615082
	   31 B(3,4,5)        =    118.959419    -0.000006    -0.010703   118.948716
	   32 B(3,4,7)        =    120.916057     0.000009    -0.050409   120.865648
	   33 B(4,7,8)        =    119.702802    -0.000012     0.037085   119.739887
	   34 B(4,7,19)       =    118.354853     0.000027    -0.017349   118.337505
	   35 B(5,4,7)        =    120.117470    -0.000003     0.061721   120.179191
	   36 B(6,14,11)      =    121.696022    -0.000315    -1.466955   120.229067
	   37 B(6,14,15)      =    122.210969     0.000893    -0.521937   121.689033
	   38 B(7,8,9)        =    119.610788    -0.000004    -0.003292   119.607496
	   39 B(7,8,17)       =    122.081582    -0.000016     0.036320   122.117902
	   40 B(8,7,19)       =    121.942219    -0.000016    -0.019767   121.922452
	   41 B(8,9,10)       =    119.687457    -0.000011    -0.026149   119.661307
	   42 B(9,1,18)       =    119.254435     0.000016    -0.010946   119.243489
	   43 B(9,8,17)       =    118.307128     0.000020    -0.033029   118.274099
	   44 B(11,14,15)     =    115.994914    -0.000565     1.146302   117.141216
	   45 B(12,11,13)     =    107.384861     0.000038     0.493076   107.877937
	   46 B(12,11,14)     =    107.353053     0.000102    -0.300260   107.052794
	   47 B(13,11,14)     =    107.477894    -0.000019    -0.810470   106.667424
	   48 B(14,15,16)     =    107.855511    -0.000105    -0.568061   107.287451
	   49 D(1,3,2,11)     =    -89.174335    -0.000003    -0.293078   -89.467413
	   50 D(1,3,4,5)      =   -178.677462    -0.000000    -0.089645  -178.767106
	   51 D(1,3,4,7)      =      0.357453    -0.000000    -0.046498     0.310955
	   52 D(1,9,8,7)      =      0.324761     0.000000    -0.012838     0.311923
	   53 D(1,9,8,17)     =   -179.927529    -0.000000    -0.013037  -179.940566
	   54 D(2,3,1,9)      =   -177.888856    -0.000001    -0.121358  -178.010214
	   55 D(2,3,1,18)     =      1.392372    -0.000002    -0.156311     1.236061
	   56 D(2,3,4,5)      =     -1.027041     0.000001     0.078053    -0.948989
	   57 D(2,3,4,7)      =    178.007873     0.000001     0.121200   178.129073
	   58 D(2,11,14,6)    =    178.788500     0.000031     8.491817   187.280317
	   59 D(2,11,14,15)   =      2.314605    -0.000029    -5.945053    -3.630448
	   60 D(3,1,9,8)      =     -0.042460    -0.000000    -0.021490    -0.063950
	   61 D(3,1,9,10)     =    179.803271    -0.000000    -0.019282   179.783989
	   62 D(3,2,11,12)    =     62.820324     0.000045    -0.208923    62.611401
	   63 D(3,2,11,13)    =    -55.936185    -0.000058    -1.779390   -57.715575
	   64 D(3,2,11,14)    =   -176.533106     0.000007    -0.726638  -177.259744
	   65 D(3,4,7,8)      =     -0.077622    -0.000000     0.012763    -0.064859
	   66 D(3,4,7,19)     =   -179.951080     0.000000     0.027339  -179.923741
	   67 D(4,3,1,9)      =     -0.296763     0.000000     0.050608    -0.246155
	   68 D(4,3,1,18)     =    178.984465    -0.000001     0.015655   179.000120
	   69 D(4,3,2,11)     =     93.237123    -0.000004    -0.465926    92.771197
	   70 D(4,7,8,9)      =     -0.264610     0.000000     0.017147    -0.247463
	   71 D(4,7,8,17)     =    179.997543     0.000000     0.017540   180.015083
	   72 D(5,4,7,8)      =    178.946174     0.000000     0.055727   179.001902
	   73 D(5,4,7,19)     =     -0.927284     0.000000     0.070303    -0.856981
	   74 D(6,14,11,12)   =    -58.696660     0.000024     8.549917   -50.146743
	   75 D(6,14,11,13)   =     56.554082     0.000044     8.578168    65.132250
	   76 D(6,14,15,16)   =      2.132470    -0.000025    -7.350252    -5.217782
	   77 D(7,8,9,10)     =   -179.521297     0.000000    -0.015187  -179.536484
	   78 D(8,9,1,18)     =   -179.332418     0.000001     0.013165  -179.319253
	   79 D(9,8,7,19)     =    179.604160    -0.000000     0.002039   179.606199
	   80 D(10,9,1,18)    =      0.513313     0.000000     0.015374     0.528687
	   81 D(10,9,8,17)    =      0.226413     0.000000    -0.015386     0.211027
	   82 D(11,14,15,16)  =    178.586517     0.000024     7.276651   185.863168
	   83 D(12,11,14,15)  =    124.829445    -0.000036    -5.886953   118.942491
	   84 D(13,11,14,15)  =   -119.919814    -0.000016    -5.858702  -125.778516
	   85 D(17,8,7,19)    =     -0.133687     0.000000     0.002432    -0.131255
	   86 R(11,18)        =      3.508474     0.000007     0.003578     3.512052
	 ---------------------------------------------------------------------------
	Successfully symmetrized geometry.

  ==> Convergence Check <==

  Measures of convergence in internal coordinates in au.
  Criteria marked as inactive (o), active & met (*), and active & unmet ( ).
  ---------------------------------------------------------------------------------------------
   Step     Total Energy     Delta E     MAX Force     RMS Force      MAX Disp      RMS Disp   
  ---------------------------------------------------------------------------------------------
    Convergence Criteria             o    1.50e-05 *    1.00e-05 *    6.00e-05 *    4.00e-05 *
  ---------------------------------------------------------------------------------------------
      2   -1908.87737484   -2.13e-03 o    1.17e-02      2.64e-03      1.50e-01      3.96e-02    ~
  ---------------------------------------------------------------------------------------------

	Writing optimization data to binary file.
	Structure for next step:
	Cartesian Geometry (in Angstrom)
	    C    -0.2404075144  -1.1549674461   0.1943677887
	    O    -1.0156607963   0.7876414263   1.3574774458
	    C    -0.1811849915   0.2050457258   0.4655368092
	    C     0.7841380671   0.9735815263  -0.1575281670
	    H     0.8403591398   2.0207646882   0.0691381604
	    O    -4.1843102381   2.2928387171   1.6202626750
	    C     1.6795987181   0.4052021764  -1.0459803626
	    C     1.6118399406  -0.9530276011  -1.3164872662
	    C     0.6507455211  -1.7282418044  -0.6898950381
	    H     0.6023606813  -2.7797852793  -0.8927307500
	    C    -2.2283624098   1.2587803775   0.8348208647
	    H    -2.8237911502   0.4494403611   0.4297480370
	    H    -2.0601239561   1.9780133513   0.0408439517
	    C    -3.0765523656   1.9547630026   1.8788690456
	    O    -2.6204992775   1.9630271293   3.1171145426
	    H    -3.2968111172   2.3493022593   3.6652341716
	   CL     2.7011369370  -1.7279729858  -2.4168795089
	   CL    -1.4206241852  -2.1562013602   0.9761184293
	   CL     2.8623964758   1.4278347053  -1.7871064385
			--------------------------
			 OPTKING Finished Execution 
			--------------------------

    Structure for next step:
    Molecular point group: c1
    Full point group: C1

    Geometry (in Angstrom), charge = 0, multiplicity = 1:

    C           -0.244314393991    -1.195757732939     0.234085548720
    O           -1.019567675870     0.746851139517     1.397195205805
    C           -0.185091871096     0.164255438994     0.505254569185
    C            0.780231187562     0.932791239497    -0.117810407013
    H            0.836452260240     1.979974401356     0.108855920403
    O           -4.188217117655     2.252048430326     1.659980434995
    C            1.675691838551     0.364411889597    -1.006262602588
    C            1.607933061030    -0.993817887948    -1.276769506198
    C            0.646838641476    -1.769032091229    -0.650177278130
    H            0.598453801765    -2.820575566142    -0.853012990048
    C           -2.232269289344     1.217990090656     0.874538624710
    H           -2.827698029817     0.408650074244     0.469465797040
    H           -2.064030835660     1.937223064509     0.080561711740
    C           -3.080459245180     1.913972715781     1.918586805633
    O           -2.624406157083     1.922236842528     3.156832302627
    H           -3.300717996786     2.308511972510     3.704951931595
    CL           2.697230057377    -1.768763272627    -2.377161748902
    CL          -1.424531064769    -2.196991646997     1.015836189326
    CL           2.858489596232     1.387044418476    -1.747388678467

gradient() will perform analytic gradient computation.

*** tstart() called on dakota
*** at Thu Sep 27 09:44:20 2018


         ---------------------------------------------------------
                                   SCF
            by Justin Turney, Rob Parrish, and Andy Simmonett
                              RHF Reference
                        8 Threads,  20000 MiB Core
         ---------------------------------------------------------

  ==> Geometry <==

    Molecular point group: c1
    Full point group: C1

    Geometry (in Angstrom), charge = 0, multiplicity = 1:

       Center              X                  Y                   Z               Mass       
    ------------   -----------------  -----------------  -----------------  -----------------
           C         -0.244314393991    -1.195757732939     0.234085548720    12.000000000000
           O         -1.019567675870     0.746851139517     1.397195205805    15.994914619560
           C         -0.185091871096     0.164255438994     0.505254569185    12.000000000000
           C          0.780231187562     0.932791239497    -0.117810407013    12.000000000000
           H          0.836452260240     1.979974401356     0.108855920403     1.007825032070
           O         -4.188217117655     2.252048430326     1.659980434995    15.994914619560
           C          1.675691838551     0.364411889597    -1.006262602588    12.000000000000
           C          1.607933061030    -0.993817887948    -1.276769506198    12.000000000000
           C          0.646838641476    -1.769032091229    -0.650177278130    12.000000000000
           H          0.598453801765    -2.820575566142    -0.853012990048     1.007825032070
           C         -2.232269289344     1.217990090656     0.874538624710    12.000000000000
           H         -2.827698029817     0.408650074244     0.469465797040     1.007825032070
           H         -2.064030835660     1.937223064509     0.080561711740     1.007825032070
           C         -3.080459245180     1.913972715781     1.918586805633    12.000000000000
           O         -2.624406157083     1.922236842528     3.156832302627    15.994914619560
           H         -3.300717996786     2.308511972510     3.704951931595     1.007825032070
          CL          2.697230057377    -1.768763272627    -2.377161748902    34.968852682000
          CL         -1.424531064769    -2.196991646997     1.015836189326    34.968852682000
          CL          2.858489596232     1.387044418476    -1.747388678467    34.968852682000

  Running in c1 symmetry.

  Rotational constants: A =      0.02762  B =      0.00809  C =      0.00654 [cm^-1]
  Rotational constants: A =    827.89799  B =    242.60076  C =    196.11715 [MHz]
  Nuclear repulsion = 1166.658019561576339

  Charge       = 0
  Multiplicity = 1
  Electrons    = 128
[...]
	 B(13,11,14)      =         1.872482	     107.285289
	 B(14,15,16)      =         1.885681	     108.041581
	 D(1,3,2,11)      =        -1.571197	     -90.022948
	 D(1,3,4,5)       =        -3.118226	    -178.661180
	 D(1,3,4,7)       =         0.006456	       0.369907
	 D(1,9,8,7)       =         0.005772	       0.330721
	 D(1,9,8,17)      =        -3.140139	    -179.916687
	 D(2,3,1,9)       =        -3.106965	    -178.015964
	 D(2,3,1,18)      =         0.022831	       1.308118
	 D(2,3,4,5)       =        -0.015240	      -0.873177
	 D(2,3,4,7)       =         3.109442	     178.157910
	 D(2,11,14,6)     =        -2.866776	    -164.254177
	 D(2,11,14,15)    =         0.315485	      18.075933
	 D(3,1,9,8)       =        -0.001214	      -0.069576
	 D(3,1,9,10)      =         3.138370	     179.815332
	 D(3,2,11,12)     =         1.125207	      64.469620
	 D(3,2,11,13)     =        -0.984862	     -56.428420
	 D(3,2,11,14)     =        -3.063913	    -175.549312
	 D(3,4,7,8)       =        -0.001936	      -0.110910
	 D(3,4,7,19)      =        -3.140760	    -179.952281
	 D(4,3,1,9)       =        -0.004867	      -0.278871
	 D(4,3,1,18)      =         3.124928	     179.045210
	 D(4,3,2,11)      =         1.609969	      92.244451
	 D(4,7,8,9)       =        -0.004198	      -0.240518
	 D(4,7,8,17)      =        -3.141308	    -179.983680
	 D(5,4,7,8)       =         3.122546	     178.908692
	 D(5,4,7,19)      =        -0.016278	      -0.932679
	 D(6,14,11,12)    =        -0.731493	     -41.911474
	 D(6,14,11,13)    =         1.300511	      74.513813
	 D(6,14,15,16)    =         0.021371	       1.224475
	 D(7,8,9,10)      =        -3.133817	    -179.554472
	 D(8,9,1,18)      =        -3.131142	    -179.401212
	 D(9,8,7,19)      =         3.134527	     179.595170
	 D(10,9,1,18)     =         0.008442	       0.483696
	 D(10,9,8,17)     =         0.003458	       0.198120
	 D(11,14,15,16)   =         3.121143	     178.828302
	 D(12,11,14,15)   =         2.450768	     140.418636
	 D(13,11,14,15)   =        -1.800413	    -103.156077
	 D(17,8,7,19)     =        -0.002583	      -0.147992
	 R(11,18)         =         6.658547	       3.523551

	Current energy   :     -1908.8783874024

	Energy change for the previous step:
		Projected    :         0.0000000822
		Actual       :        -0.0000000207

	Performing BFGS update.
	Previous computed or guess Hessian on step 1.
	Denominators (dg)(dq) or (dq)(dq) are very small.
	 Skipping Hessian update for step 49.
	Denominators (dg)(dq) or (dq)(dq) are very small.
	 Skipping Hessian update for step 48.
	Denominators (dg)(dq) or (dq)(dq) are very small.
	 Skipping Hessian update for step 47.
	Denominators (dg)(dq) or (dq)(dq) are very small.
	 Skipping Hessian update for step 46.
	Denominators (dg)(dq) or (dq)(dq) are very small.
	 Skipping Hessian update for step 45.
	Denominators (dg)(dq) or (dq)(dq) are very small.
	 Skipping Hessian update for step 44.
	Steps to be used in Hessian update: 43 42
	Taking RFO optimization step.
	Going to follow RFO solution 1.
	Using RFO vector 1.

	Determining step-restricting scale parameter for RS-RFO.
	Maximum step size allowed    0.00330

	 Iter      |step|        alpha        rfo_root  
	------------------------------------------------
	    0     0.02315       1.00000           1
	    1     0.01491    1601.93017           1
	    2     0.00960    6351.85159           1
	    3     0.00640   17642.78726           1
	    4     0.00459   38022.76029           1
	    5     0.00368   62092.48564           1
	    6     0.00335   76201.12513           1
	    7     0.00330   78763.38728           1
	------------------------------------------------
	Norm of target step-size    0.00330
	Projected energy change by RFO approximation:         0.0000000902

	Back-transformation to cartesian coordinates...
	Successfully converged to displaced geometry.

	--- Internal Coordinate Step in ANG or DEG, aJ/ANG or AJ/DEG ---
	 ---------------------------------------------------------------------------
	   Coordinate                Previous        Force       Change         New 
	   ----------                --------       ------       ------       ------
	    1 R(1,3)          =      1.388173    -0.000007    -0.000002     1.388170
	    2 R(1,9)          =      1.380516    -0.000006    -0.000000     1.380516
	    3 R(1,18)         =      1.733706     0.000002    -0.000001     1.733705
	    4 R(2,3)          =      1.352923    -0.000002     0.000000     1.352923
	    5 R(2,11)         =      1.402389    -0.000000     0.000004     1.402393
	    6 R(3,4)          =      1.382348    -0.000011    -0.000001     1.382347
	    7 R(4,5)          =      1.072722    -0.000006    -0.000001     1.072721
	    8 R(4,7)          =      1.383684    -0.000007    -0.000001     1.383683
	    9 R(6,14)         =      1.187072    -0.000005    -0.000003     1.187069
	   10 R(7,8)          =      1.386784    -0.000008    -0.000000     1.386784
	   11 R(7,19)         =      1.730477     0.000002     0.000001     1.730477
	   12 R(8,9)          =      1.384452    -0.000007    -0.000001     1.384450
	   13 R(8,17)         =      1.731414     0.000000     0.000000     1.731414
	   14 R(9,10)         =      1.071872    -0.000009    -0.000001     1.071871
	   15 R(11,12)        =      1.081239    -0.000003    -0.000007     1.081232
	   16 R(11,13)        =      1.085763    -0.000003     0.000004     1.085768
	   17 R(11,14)        =      1.511384    -0.000001    -0.000000     1.511384
	   18 R(14,15)        =      1.317862    -0.000000     0.000009     1.317872
	   19 R(15,16)        =      0.952897    -0.000001    -0.000001     0.952896
	   20 B(1,3,2)        =    121.533975     0.000000     0.000278   121.534253
	   21 B(1,3,4)        =    119.112396    -0.000000     0.000109   119.112505
	   22 B(1,9,8)        =    120.461008     0.000000     0.000010   120.461018
	   23 B(1,9,10)       =    119.893299    -0.000000    -0.000004   119.893295
	   24 B(2,3,4)        =    119.315463    -0.000000    -0.000382   119.315081
	   25 B(2,11,12)      =    111.587758     0.000000     0.000440   111.588198
	   26 B(2,11,13)      =    110.837241     0.000000    -0.001029   110.836212
	   27 B(2,11,14)      =    111.000991    -0.000000    -0.003122   110.997869
	   28 B(3,1,9)        =    120.215689    -0.000000    -0.000073   120.215616
	   29 B(3,1,18)       =    120.450592    -0.000000    -0.000001   120.450591
	   30 B(3,2,11)       =    116.217230    -0.000000     0.000747   116.217977
	   31 B(3,4,5)        =    118.929899    -0.000000    -0.000184   118.929715
	   32 B(3,4,7)        =    120.941224     0.000000    -0.000035   120.941189
	   33 B(4,7,8)        =    119.670907     0.000000    -0.000007   119.670900
	   34 B(4,7,19)       =    118.430209     0.000000     0.000054   118.430263
	   35 B(5,4,7)        =    120.121767    -0.000000     0.000218   120.121986
	   36 B(6,14,11)      =    121.424452     0.000000     0.003640   121.428092
	   37 B(6,14,15)      =    123.920233    -0.000000    -0.000488   123.919745
	   38 B(7,8,9)        =    119.597266    -0.000000    -0.000005   119.597261
	   39 B(7,8,17)       =    122.041412     0.000000    -0.000023   122.041389
	   40 B(8,7,19)       =    121.898686    -0.000000    -0.000048   121.898639
	   41 B(8,9,10)       =    119.645594    -0.000000    -0.000005   119.645588
	   42 B(9,1,18)       =    119.330312     0.000000     0.000073   119.330385
	   43 B(9,8,17)       =    118.360839     0.000000     0.000029   118.360868
	   44 B(11,14,15)     =    114.611013    -0.000000    -0.003438   114.607575
	   45 B(12,11,13)     =    108.384033     0.000000     0.001904   108.385937
	   46 B(12,11,14)     =    107.573992     0.000000     0.001615   107.575606
	   47 B(13,11,14)     =    107.285289     0.000000     0.000366   107.285655
	   48 B(14,15,16)     =    108.041581     0.000000     0.000427   108.042008
	   49 D(1,3,2,11)     =    -90.022948    -0.000000    -0.001450   -90.024398
	   50 D(1,3,4,5)      =   -178.661180    -0.000000     0.000137  -178.661043
	   51 D(1,3,4,7)      =      0.369907    -0.000000     0.000111     0.370018
	   52 D(1,9,8,7)      =      0.330721     0.000000     0.000095     0.330816
	   53 D(1,9,8,17)     =   -179.916687     0.000000     0.000219  -179.916468
	   54 D(2,3,1,9)      =   -178.015964     0.000000    -0.000033  -178.015997
	   55 D(2,3,1,18)     =      1.308118    -0.000000    -0.000104     1.308014
	   56 D(2,3,4,5)      =     -0.873177     0.000000     0.000284    -0.872893
	   57 D(2,3,4,7)      =    178.157910     0.000000     0.000258   178.158168
	   58 D(2,11,14,6)    =   -164.254177     0.000000     0.070307  -164.183870
	   59 D(2,11,14,15)   =     18.075933     0.000000     0.077844    18.153777
	   60 D(3,1,9,8)      =     -0.069576    -0.000000    -0.000206    -0.069782
	   61 D(3,1,9,10)     =    179.815332    -0.000000     0.000062   179.815394
	   62 D(3,2,11,12)    =     64.469620     0.000000     0.025091    64.494711
	   63 D(3,2,11,13)    =    -56.428420     0.000000     0.023077   -56.405343
	   64 D(3,2,11,14)    =   -175.549312     0.000000     0.025316  -175.523996
	   65 D(3,4,7,8)      =     -0.110910    -0.000000    -0.000220    -0.111130
	   66 D(3,4,7,19)     =   -179.952281    -0.000000    -0.000108  -179.952389
	   67 D(4,3,1,9)      =     -0.278871     0.000000     0.000102    -0.278769
	   68 D(4,3,1,18)     =    179.045210     0.000000     0.000031   179.045241
	   69 D(4,3,2,11)     =     92.244451    -0.000000    -0.001596    92.242855
	   70 D(4,7,8,9)      =     -0.240518     0.000000     0.000116    -0.240402
	   71 D(4,7,8,17)     =   -179.983680    -0.000000    -0.000012  -179.983692
	   72 D(5,4,7,8)      =    178.908692     0.000000    -0.000250   178.908442
	   73 D(5,4,7,19)     =     -0.932679     0.000000    -0.000138    -0.932816
	   74 D(6,14,11,12)   =    -41.911474     0.000000     0.069979   -41.841495
	   75 D(6,14,11,13)   =     74.513813     0.000000     0.073198    74.587010
	   76 D(6,14,15,16)   =      1.224475     0.000000     0.002954     1.227429
	   77 D(7,8,9,10)     =   -179.554472    -0.000000    -0.000172  -179.554644
	   78 D(8,9,1,18)     =   -179.401212    -0.000000    -0.000135  -179.401347
	   79 D(9,8,7,19)     =    179.595170     0.000000    -0.000000   179.595169
	   80 D(10,9,1,18)    =      0.483696     0.000000     0.000133     0.483829
	   81 D(10,9,8,17)    =      0.198120     0.000000    -0.000049     0.198072
	   82 D(11,14,15,16)  =    178.828302    -0.000000    -0.004689   178.823613
	   83 D(12,11,14,15)  =    140.418636     0.000000     0.077516   140.496152
	   84 D(13,11,14,15)  =   -103.156077     0.000000     0.080735  -103.075343
	   85 D(17,8,7,19)    =     -0.147992    -0.000000    -0.000129    -0.148121
	   86 R(11,18)        =      3.523551     0.000001     0.000039     3.523590
	 ---------------------------------------------------------------------------
	Successfully symmetrized geometry.

  ==> Convergence Check <==

  Measures of convergence in internal coordinates in au.
  Criteria marked as inactive (o), active & met (*), and active & unmet ( ).
  ---------------------------------------------------------------------------------------------
   Step     Total Energy     Delta E     MAX Force     RMS Force      MAX Disp      RMS Disp   
  ---------------------------------------------------------------------------------------------
    Convergence Criteria             o    1.50e-05 *    1.00e-05 *    6.00e-05 *    4.00e-05 *
  ---------------------------------------------------------------------------------------------
     50   -1908.87838740   -2.07e-08 o    2.10e-06 *    6.16e-07 *    1.41e-03      3.56e-04    ~
  ---------------------------------------------------------------------------------------------


  **** Optimization has failed! (in 50 steps) ****

  ==> Optimization Summary <==

  Measures of convergence in internal coordinates in au.
  --------------------------------------------------------------------------------------------------------------- ~
   Step         Total Energy             Delta E       MAX Force       RMS Force        MAX Disp        RMS Disp  ~
  --------------------------------------------------------------------------------------------------------------- ~
      1   -1908.875243700717  -1908.875243700717      0.02880722      0.00477931      0.11542734      0.02255344  ~
      2   -1908.877374837956     -0.002131137240      0.01173652      0.00263794      0.14971727      0.03961378  ~
      3   -1908.875447000453      0.001927837503      0.01178636      0.00274194      0.10262412      0.02832486  ~
      4   -1908.878236123597     -0.002789123145      0.00478726      0.00080732      0.01867516      0.00507280  ~
      5   -1908.878351705521     -0.000115581924      0.00124978      0.00020212      0.01108841      0.00273915  ~
      6   -1908.878357308783     -0.000005603262      0.00017480      0.00004841      0.01078540      0.00274369  ~
      7   -1908.878359266972     -0.000001958188      0.00024680      0.00003891      0.01362161      0.00337025  ~
      8   -1908.878361166416     -0.000001899445      0.00012219      0.00003161      0.01368073      0.00336981  ~
      9   -1908.878363087568     -0.000001921152      0.00012390      0.00002642      0.04091150      0.01011074  ~
     10   -1908.878368429986     -0.000005342417      0.00030536      0.00005044      0.04085500      0.01010914  ~
     11   -1908.878372400451     -0.000003970466      0.00113221      0.00016741      0.01023651      0.00252789  ~
     12   -1908.878375156037     -0.000002755586      0.00030240      0.00004795      0.02986132      0.00758472  ~
     13   -1908.878378612009     -0.000003455971      0.00070205      0.00009465      0.03033989      0.00758413  ~
     14   -1908.878381785472     -0.000003173463      0.00062173      0.00009374      0.03009480      0.00758534  ~
     15   -1908.878384318290     -0.000002532818      0.00060883      0.00009482      0.00745545      0.00189598  ~
     16   -1908.878385321617     -0.000001003327      0.00004867      0.00000762      0.00190774      0.00047388  ~
     17   -1908.878385437690     -0.000000116072      0.00001218      0.00000327      0.00570875      0.00142164  ~
     18   -1908.878385787645     -0.000000349955      0.00001241      0.00000358      0.00141402      0.00035543  ~
     19   -1908.878385864261     -0.000000076616      0.00001013      0.00000273      0.00141664      0.00035544  ~
     20   -1908.878385952642     -0.000000088381      0.00001025      0.00000266      0.00141978      0.00035626  ~
     21   -1908.878386026825     -0.000000074183      0.00000981      0.00000252      0.00141820      0.00035606  ~
     22   -1908.878386111864     -0.000000085039      0.00000972      0.00000246      0.00141905      0.00035594  ~
     23   -1908.878386185023     -0.000000073160      0.00000945      0.00000240      0.00141743      0.00035586  ~
     24   -1908.878386252107     -0.000000067083      0.00000923      0.00000234      0.00141772      0.00035574  ~
     25   -1908.878386314037     -0.000000061930      0.00000893      0.00000226      0.00141851      0.00035564  ~
     26   -1908.878386384983     -0.000000070946      0.00000879      0.00000222      0.00141694      0.00035560  ~
     27   -1908.878386450742     -0.000000065759      0.00000845      0.00000214      0.00141682      0.00035554  ~
     28   -1908.878386524288     -0.000000073546      0.00000832      0.00000210      0.00141906      0.00035547  ~
     29   -1908.878386573119     -0.000000048831      0.00000800      0.00000202      0.00141695      0.00035546  ~
     30   -1908.878386640622     -0.000000067503      0.00000769      0.00000196      0.00141824      0.00035543  ~
     31   -1908.878386696634     -0.000000056012      0.00000753      0.00000190      0.00141579      0.00035543  ~
     32   -1908.878386760223     -0.000000063588      0.00000716      0.00000181      0.00141758      0.00035541  ~
     33   -1908.878386813535     -0.000000053312      0.00000693      0.00000175      0.00141736      0.00035541  ~
     34   -1908.878386862664     -0.000000049130      0.00000664      0.00000168      0.00142043      0.00035612  ~
     35   -1908.878386912792     -0.000000050127      0.00000641      0.00000162      0.00141775      0.00035597  ~
     36   -1908.878386960554     -0.000000047762      0.00000608      0.00000154      0.00141645      0.00035582  ~
     37   -1908.878387008749     -0.000000048195      0.00000585      0.00000147      0.00141567      0.00035565  ~
     38   -1908.878387050478     -0.000000041729      0.00000552      0.00000140      0.00141437      0.00035558  ~
     39   -1908.878387091853     -0.000000041375      0.00000522      0.00000133      0.00141548      0.00035548  ~
     40   -1908.878387129808     -0.000000037955      0.00000495      0.00000129      0.00141593      0.00035544  ~
     41   -1908.878387167843     -0.000000038035      0.00000473      0.00000119      0.00141251      0.00035543  ~
     42   -1908.878387209116     -0.000000041273      0.00000442      0.00000115      0.00140728      0.00035542  ~
     43   -1908.878387242984     -0.000000033868      0.00000413      0.00000108      0.00141786      0.00035623  ~
     44   -1908.878387268392     -0.000000025408      0.00000390      0.00000098      0.00141464      0.00035587  ~
     45   -1908.878387304155     -0.000000035763      0.00000347      0.00000090      0.00141331      0.00035561  ~
     46   -1908.878387319627     -0.000000015472      0.00000325      0.00000084      0.00141183      0.00035549  ~
     47   -1908.878387355785     -0.000000036158      0.00000294      0.00000076      0.00141059      0.00035544  ~
     48   -1908.878387374988     -0.000000019203      0.00000266      0.00000069      0.00140776      0.00035541  ~
     49   -1908.878387381624     -0.000000006636      0.00000230      0.00000063      0.00141262      0.00035587  ~
     50   -1908.878387402360     -0.000000020736      0.00000210      0.00000062      0.00140908      0.00035554  ~
  --------------------------------------------------------------------------------------------------------------- ~

	Writing optimization data to binary file.
			--------------------------
			 OPTKING Finished Execution 
			--------------------------

    Structure for next step:
    Molecular point group: c1
    Full point group: C1

    Geometry (in Angstrom), charge = 0, multiplicity = 1:

    C           -0.330632550915    -1.209334298667     0.217885496216
    O           -1.056636441306     0.760546463220     1.364365909300
    C           -0.219717454663     0.145944494074     0.497052623826
    C            0.798934607715     0.872499013931    -0.090612258447
    H            0.895068659389     1.914813772906     0.144055554989
    O           -4.157149618270     2.343675765265     1.687937872479
    C            1.697088564915     0.269200160970    -0.953125241988
    C            1.577699429214    -1.083945032066    -1.232254319456
    C            0.563513453265    -1.817328024083    -0.640410323060
    H            0.474870507029    -2.864759802349    -0.850020518413
    C           -2.228642866091     1.301700563945     0.816406639718
    H           -2.870510165823     0.531887749836     0.410872305539
    H           -1.994998653388     2.005628268881     0.023445465731
    C           -3.020151778058     2.051123697410     1.863382884947
    O           -2.332849003678     2.382643679741     2.937857165284
    H           -2.912376007900     2.862683121754     3.522427162648
    CL           2.667276899896    -1.900932169333    -2.301435107824
    CL          -1.579931361629    -2.158884720943     0.955001967131
    CL           2.947924819654     1.240011619047    -1.651327103490

	Optimizer: Did not converge!	Cleaning optimization helper files.

*** Psi4 exiting successfully. Buy a developer a beer!
