
    -----------------------------------------------------------------------
          Psi4: An Open-Source Ab Initio Electronic Structure Package
                               Psi4 1.2.1 release

                         Git: Rev {HEAD} 406f4de 


    R. M. Parrish, L. A. Burns, D. G. A. Smith, A. C. Simmonett,
    A. E. DePrince III, E. G. Hohenstein, U. Bozkaya, A. Yu. Sokolov,
    R. Di Remigio, R. M. Richard, J. F. Gonthier, A. M. James,
    H. R. McAlexander, A. Kumar, M. Saitow, X. Wang, B. P. Pritchard,
    P. Verma, H. F. Schaefer III, K. Patkowski, R. A. King, E. F. Valeev,
    F. A. Evangelista, J. M. Turney, T. D. Crawford, and C. D. Sherrill,
    J. Chem. Theory Comput. 13(7) pp 3185--3197 (2017).
    (doi: 10.1021/acs.jctc.7b00174)


                         Additional Contributions by
    P. Kraus, H. Kruse, M. H. Lechner, M. C. Schieber, and R. A. Shaw

    -----------------------------------------------------------------------


    Psi4 started on: Thursday, 27 September 2018 01:05PM

    Process ID: 9975
    Host:       wr60
    PSIDATADIR: /usr/local/hpc1/software_molmod/psi4/psi4conda/share/psi4
    Memory:     500.0 MiB
    Threads:    16
    
  ==> Input File <==

--------------------------------------------------------------------------
memory 110 Gb

molecule conf9 {
    C            0.652680553299    -0.856200972318    -0.844613186490
    O            1.595224487166     0.813956460119     0.486575466651
    C            0.487755122581     0.183019384366     0.074830347390
    C           -0.790079745849     0.496341475488     0.498496723383
    H           -0.961030951872     1.287512364436     1.199086262658
    O            3.004150891080     3.408831243629     2.344449677264
    C           -1.889874102372    -0.207970655697     0.023001971692
    C           -1.720475262995    -1.233360261221    -0.883520868667
    C           -0.437282664455    -1.549137833189    -1.312261158708
    H           -0.296959868937    -2.344545669998    -2.017059833467
    C            1.506067671142     1.846669132494     1.417440092516
    H            1.057115548739     1.504337252196     2.344498342883
    H            0.923474856991     2.677418436203     1.039780233319
    C            2.878148918443     2.382468243194     1.761578484961
    O            3.879504754748     1.608324865596     1.402542138015
    H            4.691041492386     2.023969368480     1.679608578541
    CL          -3.050379934684    -2.147638142645    -1.512575607499
    CL           2.235096841688    -1.280942647669    -1.404246663527
    CL          -3.454752702129     0.248634588427     0.605790942308
}
set globals {
  reference rhf
  g_convergence gau_tight
  basis 6-31G(d)
}
frequency('hf', dertype=1)
--------------------------------------------------------------------------

  Memory set to 102.445 GiB by Python driver.
gradient() will perform analytic gradient computation.

*** tstart() called on wr60
*** at Thu Sep 27 13:05:39 2018

   => Loading Basis Set <=

    Name: 6-31G(D)
    Role: ORBITAL
    Keyword: BASIS
    atoms 1, 3-4, 7-9, 11, 14 entry C          line   111 file /usr/local/hpc1/software_molmod/psi4/psi4conda/share/psi4/basis/6-31g_d_.gbs 
    atoms 2, 6, 15            entry O          line   145 file /usr/local/hpc1/software_molmod/psi4/psi4conda/share/psi4/basis/6-31g_d_.gbs 
    atoms 5, 10, 12-13, 16    entry H          line    44 file /usr/local/hpc1/software_molmod/psi4/psi4conda/share/psi4/basis/6-31g_d_.gbs 
    atoms 17-19               entry CL         line   340 file /usr/local/hpc1/software_molmod/psi4/psi4conda/share/psi4/basis/6-31g_d_.gbs 

    There are an even number of electrons - assuming singlet.
    Specify the multiplicity in the molecule input block.


         ---------------------------------------------------------
                                   SCF
            by Justin Turney, Rob Parrish, Andy Simmonett
                             and Daniel Smith
                              RHF Reference
                       16 Threads, 104904 MiB Core
         ---------------------------------------------------------

  ==> Geometry <==

    Molecular point group: c1
    Full point group: C1

    Geometry (in Angstrom), charge = 0, multiplicity = 1:

       Center              X                  Y                   Z               Mass       
    ------------   -----------------  -----------------  -----------------  -----------------
         C            0.652680553299    -0.856200972318    -0.844613186490    12.000000000000
         O            1.595224487166     0.813956460119     0.486575466651    15.994914619560
         C            0.487755122581     0.183019384366     0.074830347390    12.000000000000
         C           -0.790079745849     0.496341475488     0.498496723383    12.000000000000
         H           -0.961030951872     1.287512364436     1.199086262658     1.007825032070
         O            3.004150891080     3.408831243629     2.344449677264    15.994914619560
         C           -1.889874102372    -0.207970655697     0.023001971692    12.000000000000
         C           -1.720475262995    -1.233360261221    -0.883520868667    12.000000000000
         C           -0.437282664455    -1.549137833189    -1.312261158708    12.000000000000
         H           -0.296959868937    -2.344545669998    -2.017059833467     1.007825032070
         C            1.506067671142     1.846669132494     1.417440092516    12.000000000000
         H            1.057115548739     1.504337252196     2.344498342883     1.007825032070
         H            0.923474856991     2.677418436203     1.039780233319     1.007825032070
         C            2.878148918443     2.382468243194     1.761578484961    12.000000000000
         O            3.879504754748     1.608324865596     1.402542138015    15.994914619560
         H            4.691041492386     2.023969368480     1.679608578541     1.007825032070
         CL          -3.050379934684    -2.147638142645    -1.512575607499    34.968852682000
         CL           2.235096841688    -1.280942647669    -1.404246663527    34.968852682000
         CL          -3.454752702129     0.248634588427     0.605790942308    34.968852682000

  Running in c1 symmetry.

  Rotational constants: A =      0.02580  B =      0.00846  C =      0.00639 [cm^-1]
  Rotational constants: A =    773.50492  B =    253.55107  C =    191.55847 [MHz]
  Nuclear repulsion = 1165.307333532388157

  Charge       = 0
  Multiplicity = 1
  Electrons    = 128
  Nalpha       = 64
  Nbeta        = 64

  ==> Algorithm <==

  SCF Algorithm Type is DF.
  DIIS enabled.
  MOM disabled.
  Fractional occupation disabled.
  Guess Type is SAD.
  Energy threshold   = 1.00e-08
  Density threshold  = 1.00e-08
  Integral threshold = 0.00e+00

  ==> Primary Basis <==

  Basis Set: 6-31G(D)
    Blend: 6-31G(D)
    Number of shells: 100
    Number of basis function: 232
    Number of Cartesian functions: 232
    Spherical Harmonics?: false
    Max angular momentum: 2

   => Loading Basis Set <=

    Name: (6-31G(D) AUX)
    Role: JKFIT
    Keyword: DF_BASIS_SCF
    atoms 1, 3-4, 7-9, 11, 14 entry C          line   121 file /usr/local/hpc1/software_molmod/psi4/psi4conda/share/psi4/basis/cc-pvdz-jkfit.gbs 
    atoms 2, 6, 15            entry O          line   221 file /usr/local/hpc1/software_molmod/psi4/psi4conda/share/psi4/basis/cc-pvdz-jkfit.gbs 
    atoms 5, 10, 12-13, 16    entry H          line    51 file /usr/local/hpc1/software_molmod/psi4/psi4conda/share/psi4/basis/cc-pvdz-jkfit.gbs 
    atoms 17-19               entry CL         line   667 file /usr/local/hpc1/software_molmod/psi4/psi4conda/share/psi4/basis/cc-pvdz-jkfit.gbs 

  ==> Pre-Iterations <==

   -------------------------------------------------------
    Irrep   Nso     Nmo     Nalpha   Nbeta   Ndocc  Nsocc
   -------------------------------------------------------
     A        232     232       0       0       0       0
   -------------------------------------------------------
    Total     232     232      64      64      64       0
   -------------------------------------------------------

  ==> Integral Setup <==

  ==> DiskDFJK: Density-Fitted J/K Matrices <==

    J tasked:                  Yes
    K tasked:                  Yes
    wK tasked:                  No
    OpenMP threads:             16
    Integrals threads:          16
    Memory (MB):             78678
    Algorithm:                Core
    Integral Cache:           NONE
    Schwarz Cutoff:          1E-12
    Fitting Condition:       1E-12

   => Auxiliary Basis Set <=

  Basis Set: (6-31G(D) AUX)
    Blend: CC-PVDZ-JKFIT
    Number of shells: 417
    Number of basis function: 1406
    Number of Cartesian functions: 1406
    Spherical Harmonics?: false
    Max angular momentum: 3

  Minimum eigenvalue in the overlap matrix is 3.8052483304E-04.
  Using Symmetric Orthogonalization.

  SCF Guess: Superposition of Atomic Densities via on-the-fly atomic UHF.

  ==> Iterations <==

                           Total Energy        Delta E     RMS |[F,P]|

   @DF-RHF iter   0: -1913.89528320329055   -1.91390e+03   1.08761e-01 
   @DF-RHF iter   1: -1908.49091111387202    5.40437e+00   1.21532e-02 
   @DF-RHF iter   2: -1908.79495788142231   -3.04047e-01   6.54893e-03 DIIS
   @DF-RHF iter   3: -1908.86470961693840   -6.97517e-02   2.19670e-03 DIIS
   @DF-RHF iter   4: -1908.87767369411426   -1.29641e-02   5.32456e-04 DIIS
   @DF-RHF iter   5: -1908.87863898072374   -9.65287e-04   2.20301e-04 DIIS
   @DF-RHF iter   6: -1908.87878896861366   -1.49988e-04   8.24116e-05 DIIS
   @DF-RHF iter   7: -1908.87881446306733   -2.54945e-05   2.22648e-05 DIIS
   @DF-RHF iter   8: -1908.87881611437911   -1.65131e-06   8.59768e-06 DIIS
   @DF-RHF iter   9: -1908.87881630998550   -1.95606e-07   2.50096e-06 DIIS
   @DF-RHF iter  10: -1908.87881633333200   -2.33465e-08   8.71644e-07 DIIS
   @DF-RHF iter  11: -1908.87881633622192   -2.88992e-09   4.20641e-07 DIIS
   @DF-RHF iter  12: -1908.87881633677580   -5.53882e-10   1.08969e-07 DIIS
   @DF-RHF iter  13: -1908.87881633683219   -5.63887e-11   3.76087e-08 DIIS
   @DF-RHF iter  14: -1908.87881633683810   -5.91172e-12   1.29017e-08 DIIS
   @DF-RHF iter  15: -1908.87881633683878   -6.82121e-13   6.23716e-09 DIIS

  ==> Post-Iterations <==

    Orbital Energies [Eh]
    ---------------------

    Doubly Occupied:                                                      

       1A   -104.848363     2A   -104.844033     3A   -104.840179  
       4A    -20.635399     5A    -20.631192     6A    -20.571931  
       7A    -11.408237     8A    -11.348832     9A    -11.338117  
      10A    -11.331361    11A    -11.327109    12A    -11.323301  
      13A    -11.282796    14A    -11.275718    15A    -10.581656  
      16A    -10.577190    17A    -10.573202    18A     -8.051093  
      19A     -8.047573    20A     -8.047550    21A     -8.046641  
      22A     -8.043127    23A     -8.043100    24A     -8.042684  
      25A     -8.039150    26A     -8.039111    27A     -1.503209  
      28A     -1.465209    29A     -1.390983    30A     -1.243228  
      31A     -1.184549    32A     -1.152859    33A     -1.111202  
      34A     -1.062223    35A     -1.027918    36A     -0.979689  
      37A     -0.891697    38A     -0.854146    39A     -0.831712  
      40A     -0.762047    41A     -0.741630    42A     -0.723761  
      43A     -0.711423    44A     -0.695119    45A     -0.672046  
      46A     -0.651256    47A     -0.645284    48A     -0.607881  
      49A     -0.602702    50A     -0.598048    51A     -0.581522  
      52A     -0.567606    53A     -0.551294    54A     -0.532210  
      55A     -0.515463    56A     -0.499096    57A     -0.491184  
      58A     -0.484860    59A     -0.471416    60A     -0.465612  
      61A     -0.458288    62A     -0.450417    63A     -0.365650  
      64A     -0.335173  

    Virtual:                                                              

      65A      0.096076    66A      0.114908    67A      0.150244  
      68A      0.172696    69A      0.207130    70A      0.211706  
      71A      0.231714    72A      0.238774    73A      0.285364  
      74A      0.294763    75A      0.309697    76A      0.322331  
      77A      0.326993    78A      0.391150    79A      0.393294  
      80A      0.440717    81A      0.443768    82A      0.449687  
      83A      0.467935    84A      0.510138    85A      0.519673  
      86A      0.538249    87A      0.547768    88A      0.578936  
      89A      0.588497    90A      0.598616    91A      0.600732  
      92A      0.625260    93A      0.625921    94A      0.632616  
      95A      0.653397    96A      0.655176    97A      0.675147  
      98A      0.685538    99A      0.705441   100A      0.719186  
     101A      0.730590   102A      0.766897   103A      0.772051  
     104A      0.787404   105A      0.788873   106A      0.810132  
     107A      0.819030   108A      0.853237   109A      0.856478  
     110A      0.865289   111A      0.895676   112A      0.914407  
     113A      0.926324   114A      0.943154   115A      0.959875  
     116A      0.969129   117A      0.979603   118A      0.999287  
     119A      1.030740   120A      1.042256   121A      1.051082  
     122A      1.073132   123A      1.076944   124A      1.098805  
     125A      1.109211   126A      1.110168   127A      1.125434  
     128A      1.130897   129A      1.135060   130A      1.138494  
     131A      1.146811   132A      1.162425   133A      1.169091  
     134A      1.177005   135A      1.191615   136A      1.191953  
     137A      1.213504   138A      1.224490   139A      1.253382  
     140A      1.263399   141A      1.283111   142A      1.295809  
     143A      1.320286   144A      1.325115   145A      1.342359  
     146A      1.355690   147A      1.373856   148A      1.387804  
     149A      1.419434   150A      1.442642   151A      1.451883  
     152A      1.463711   153A      1.519651   154A      1.533118  
     155A      1.555547   156A      1.577092   157A      1.623752  
     158A      1.651142   159A      1.663154   160A      1.684521  
     161A      1.685070   162A      1.707946   163A      1.765891  
     164A      1.772266   165A      1.783824   166A      1.791021  
     167A      1.796331   168A      1.828631   169A      1.945610  
     170A      1.958629   171A      1.978673   172A      2.019226  
     173A      2.033715   174A      2.060102   175A      2.084649  
     176A      2.103524   177A      2.119661   178A      2.175045  
     179A      2.199854   180A      2.209147   181A      2.224802  
     182A      2.231480   183A      2.241264   184A      2.319386  
     185A      2.322927   186A      2.357470   187A      2.395522  
     188A      2.404846   189A      2.427435   190A      2.442413  
     191A      2.450135   192A      2.481810   193A      2.517672  
     194A      2.559347   195A      2.591391   196A      2.620856  
     197A      2.653369   198A      2.668452   199A      2.762860  
     200A      2.837847   201A      2.865795   202A      2.872991  
     203A      2.905407   204A      2.941727   205A      2.973322  
     206A      3.020340   207A      3.031803   208A      3.069880  
     209A      3.078216   210A      3.103947   211A      3.132022  
     212A      3.243651   213A      3.259262   214A      3.309431  
     215A      3.421202   216A      3.492487   217A      3.596470  
     218A      3.730777   219A      4.251316   220A      4.431140  
     221A      4.452468   222A      4.483609   223A      4.519841  
     224A      4.581521   225A      4.644740   226A      4.671207  
     227A      4.730753   228A      4.762104   229A      4.818115  
     230A      4.900333   231A      4.953924   232A      5.160301  

    Final Occupation by Irrep:
              A 
    DOCC [    64 ]

  Energy converged.

  @DF-RHF Final Energy: -1908.87881633683878

   => Energetics <=

    Nuclear Repulsion Energy =           1165.3073335323881565
    One-Electron Energy =               -4948.3357896023662761
    Two-Electron Energy =                1874.1496397331395656
    Total Energy =                      -1908.8788163368387814



Properties will be evaluated at   0.000000,   0.000000,   0.000000 [a0]

Properties computed using the SCF density matrix

  Nuclear Dipole Moment: [e a0]
     X:     9.0248      Y:     7.7658      Z:     6.1164

  Electronic Dipole Moment: [e a0]
     X:    -8.6207      Y:    -7.6844      Z:    -5.8702

  Dipole Moment: [e a0]
     X:     0.4041      Y:     0.0814      Z:     0.2462     Total:     0.4801

  Dipole Moment: [D]
     X:     1.0272      Y:     0.2070      Z:     0.6257     Total:     1.2204


*** tstop() called on wr60 at Thu Sep 27 13:05:46 2018
Module time:
	user time   =      90.06 seconds =       1.50 minutes
	system time =       2.54 seconds =       0.04 minutes
	total time  =          7 seconds =       0.12 minutes
Total time:
	user time   =      90.06 seconds =       1.50 minutes
	system time =       2.54 seconds =       0.04 minutes
	total time  =          7 seconds =       0.12 minutes

*** tstart() called on wr60
*** at Thu Sep 27 13:05:46 2018


         ------------------------------------------------------------
                                   SCF GRAD                          
                          Rob Parrish, Justin Turney,                
                       Andy Simmonett, and Alex Sokolov              
         ------------------------------------------------------------

  ==> Geometry <==

    Molecular point group: c1
    Full point group: C1

    Geometry (in Angstrom), charge = 0, multiplicity = 1:

       Center              X                  Y                   Z               Mass       
    ------------   -----------------  -----------------  -----------------  -----------------
         C            0.652680553299    -0.856200972318    -0.844613186490    12.000000000000
         O            1.595224487166     0.813956460119     0.486575466651    15.994914619560
         C            0.487755122581     0.183019384366     0.074830347390    12.000000000000
         C           -0.790079745849     0.496341475488     0.498496723383    12.000000000000
         H           -0.961030951872     1.287512364436     1.199086262658     1.007825032070
         O            3.004150891080     3.408831243629     2.344449677264    15.994914619560
         C           -1.889874102372    -0.207970655697     0.023001971692    12.000000000000
         C           -1.720475262995    -1.233360261221    -0.883520868667    12.000000000000
         C           -0.437282664455    -1.549137833189    -1.312261158708    12.000000000000
         H           -0.296959868937    -2.344545669998    -2.017059833467     1.007825032070
         C            1.506067671142     1.846669132494     1.417440092516    12.000000000000
         H            1.057115548739     1.504337252196     2.344498342883     1.007825032070
         H            0.923474856991     2.677418436203     1.039780233319     1.007825032070
         C            2.878148918443     2.382468243194     1.761578484961    12.000000000000
         O            3.879504754748     1.608324865596     1.402542138015    15.994914619560
         H            4.691041492386     2.023969368480     1.679608578541     1.007825032070
         CL          -3.050379934684    -2.147638142645    -1.512575607499    34.968852682000
         CL           2.235096841688    -1.280942647669    -1.404246663527    34.968852682000
         CL          -3.454752702129     0.248634588427     0.605790942308    34.968852682000

  Nuclear repulsion = 1165.307333532388157

  ==> Basis Set <==

  Basis Set: 6-31G(D)
    Blend: 6-31G(D)
    Number of shells: 100
    Number of basis function: 232
    Number of Cartesian functions: 232
    Spherical Harmonics?: false
    Max angular momentum: 2

  ==> DFJKGrad: Density-Fitted SCF Gradients <==

    Gradient:                    1
    J tasked:                  Yes
    K tasked:                  Yes
    wK tasked:                  No
    OpenMP threads:             16
    Integrals threads:          16
    Memory (MB):             78678
    Schwarz Cutoff:          0E+00
    Fitting Condition:       1E-12

   => Auxiliary Basis Set <=

  Basis Set: (6-31G(D) AUX)
    Blend: CC-PVDZ-JKFIT
    Number of shells: 417
    Number of basis function: 1406
    Number of Cartesian functions: 1406
    Spherical Harmonics?: false
    Max angular momentum: 3


  -Total Gradient:
     Atom            X                  Y                   Z
    ------   -----------------  -----------------  -----------------
       1       -0.000000315115    -0.000002027602    -0.000001276839
       2       -0.000000520883     0.000000636852     0.000001500975
       3       -0.000000223865     0.000001343514     0.000000553539
       4        0.000002883395     0.000000692678    -0.000000500982
       5        0.000000035119     0.000000595458     0.000000554920
       6       -0.000000075311     0.000001468590     0.000000699417
       7       -0.000000648588    -0.000002514760    -0.000001101427
       8       -0.000002117322     0.000000979609     0.000000835724
       9        0.000001497684     0.000000765633     0.000000398798
      10       -0.000000037012    -0.000000048034    -0.000000032265
      11        0.000000417126    -0.000001080838    -0.000000583524
      12       -0.000000626072     0.000000089554     0.000000070791
      13       -0.000000171415     0.000000265834    -0.000000142543
      14       -0.000001521033    -0.000001504063    -0.000000582340
      15       -0.000000399308    -0.000000118465    -0.000000206074
      16        0.000001896286    -0.000000073311    -0.000000321760
      17        0.000000231131    -0.000000087966    -0.000000077670
      18       -0.000000052065     0.000000286170     0.000000085252
      19       -0.000000252688     0.000000331255     0.000000125953


*** tstop() called on wr60 at Thu Sep 27 13:05:51 2018
Module time:
	user time   =      63.31 seconds =       1.06 minutes
	system time =       1.44 seconds =       0.02 minutes
	total time  =          5 seconds =       0.08 minutes
Total time:
	user time   =     153.39 seconds =       2.56 minutes
	system time =       3.98 seconds =       0.07 minutes
	total time  =         12 seconds =       0.20 minutes

  Based on options and gradient (rms=1.70E-06), recommend projecting translations and projecting rotations.
hessian() will perform frequency computation by finite difference of analytic gradients.

-------------------------------------------------------------

  Using finite-differences of gradients to determine vibrational frequencies and 
  normal modes.  Resulting frequencies are only valid at stationary points.
	Generating geometries for use with 3-point formula.
	Displacement size will be 5.00e-03.
	Number of atoms is 19.
	Number of irreps is 1.
	Number of SALCS is 51.
	Translations projected? 1. Rotations projected? 1.
	Index of salcs per irrep:
	 1 :  0  1  2  3  4  5  6  7  8  9  10  11  12  13  14  15  16  17  18  19  20  21  22  23  24  25  26  27  28  29  30  31  32  33  34  35  36  37  38  39  40  41  42  43  44  45  46  47  48  49  50 
	Number of SALC's per irrep:
		 Irrep 1: 51
	Number of geometries (including reference) is 103.
	Number of displacements per irrep:
	  Irrep 1: 102

  //>>>>>>>>>>>>>>>>>>>>>>>>>>>>>>>>>>>//
  //   Loading displacement 1 of 103   //
  //<<<<<<<<<<<<<<<<<<<<<<<<<<<<<<<<<<<//
gradient() will perform analytic gradient computation.

*** tstart() called on wr60
*** at Thu Sep 27 13:05:51 2018

   => Loading Basis Set <=

    Name: 6-31G(D)
    Role: ORBITAL
    Keyword: BASIS
    atoms 1, 3-4, 7-9, 11, 14 entry C          line   111 file /usr/local/hpc1/software_molmod/psi4/psi4conda/share/psi4/basis/6-31g_d_.gbs 
    atoms 2, 6, 15            entry O          line   145 file /usr/local/hpc1/software_molmod/psi4/psi4conda/share/psi4/basis/6-31g_d_.gbs 
    atoms 5, 10, 12-13, 16    entry H          line    44 file /usr/local/hpc1/software_molmod/psi4/psi4conda/share/psi4/basis/6-31g_d_.gbs 
    atoms 17-19               entry CL         line   340 file /usr/local/hpc1/software_molmod/psi4/psi4conda/share/psi4/basis/6-31g_d_.gbs 


         ---------------------------------------------------------
                                   SCF
            by Justin Turney, Rob Parrish, Andy Simmonett
                             and Daniel Smith
                              RHF Reference
                       16 Threads, 104904 MiB Core
         ---------------------------------------------------------

  ==> Geometry <==

    Molecular point group: c1
    Full point group: C1

    Geometry (in Angstrom), charge = 0, multiplicity = 1:

       Center              X                  Y                   Z               Mass       
    ------------   -----------------  -----------------  -----------------  -----------------
         C            0.651937677853    -0.856200179285    -0.844609871737    12.000000000000
         O            1.595257680037     0.813961218029     0.486580355455    15.994914619560
         C            0.487791478638     0.183020757407     0.074831914982    12.000000000000
         C           -0.790045756004     0.496339936393     0.498493307827    12.000000000000
         H           -0.961001597218     1.287511147497     1.199081352258     1.007825032070
         O            3.004170477786     3.408841782377     2.344456810319    15.994914619560
         C           -1.889836523906    -0.207975629823     0.022995343880    12.000000000000
         C           -1.720431682467    -1.233365789239    -0.883525748373    12.000000000000
         C           -0.437236692807    -1.549140440506    -1.312261033111    12.000000000000
         H           -0.296909235616    -2.344548685150    -2.017058319482     1.007825032070
         C            1.506094754250     1.846674683478     1.417443516289    12.000000000000
         H            1.057140173495     1.504342640230     2.344500515963     1.007825032070
         H            0.923501112796     2.677422028525     1.039780624796     1.007825032070
         C            2.878173335368     2.382477804333     1.761586295291    12.000000000000
         O            3.879532522441     1.608336678902     1.402554437617    15.994914619560
         H            4.691067155139     2.023983634915     1.679623363492     1.007825032070
         CL          -3.050331652867    -2.147647884175    -1.512584302365    34.968852682000
         CL           2.235142437625    -1.280938287038    -1.404237137249    34.968852682000
         CL          -3.454718446323     0.248626118693     0.605778131389    34.968852682000

  Running in c1 symmetry.

  Rotational constants: A =      0.02580  B =      0.00846  C =      0.00639 [cm^-1]
  Rotational constants: A =    773.52121  B =    253.55088  C =    191.55937 [MHz]
  Nuclear repulsion = 1165.309286795405569

  Charge       = 0
  Multiplicity = 1
  Electrons    = 128
  Nalpha       = 64
  Nbeta        = 64

  ==> Algorithm <==

  SCF Algorithm Type is DF.
  DIIS enabled.
  MOM disabled.
  Fractional occupation disabled.
  Guess Type is SAD.
  Energy threshold   = 1.00e-08
  Density threshold  = 1.00e-08
  Integral threshold = 0.00e+00

  ==> Primary Basis <==

  Basis Set: 6-31G(D)
    Blend: 6-31G(D)
    Number of shells: 100
    Number of basis function: 232
    Number of Cartesian functions: 232
    Spherical Harmonics?: false
    Max angular momentum: 2

   => Loading Basis Set <=

    Name: (6-31G(D) AUX)
    Role: JKFIT
    Keyword: DF_BASIS_SCF
    atoms 1, 3-4, 7-9, 11, 14 entry C          line   121 file /usr/local/hpc1/software_molmod/psi4/psi4conda/share/psi4/basis/cc-pvdz-jkfit.gbs 
    atoms 2, 6, 15            entry O          line   221 file /usr/local/hpc1/software_molmod/psi4/psi4conda/share/psi4/basis/cc-pvdz-jkfit.gbs 
    atoms 5, 10, 12-13, 16    entry H          line    51 file /usr/local/hpc1/software_molmod/psi4/psi4conda/share/psi4/basis/cc-pvdz-jkfit.gbs 
    atoms 17-19               entry CL         line   667 file /usr/local/hpc1/software_molmod/psi4/psi4conda/share/psi4/basis/cc-pvdz-jkfit.gbs 

  ==> Pre-Iterations <==

   -------------------------------------------------------
    Irrep   Nso     Nmo     Nalpha   Nbeta   Ndocc  Nsocc
   -------------------------------------------------------
     A        232     232       0       0       0       0
   -------------------------------------------------------
    Total     232     232      64      64      64       0
   -------------------------------------------------------

  ==> Integral Setup <==

  ==> DiskDFJK: Density-Fitted J/K Matrices <==

    J tasked:                  Yes
    K tasked:                  Yes
    wK tasked:                  No
    OpenMP threads:             16
    Integrals threads:          16
    Memory (MB):             78678
    Algorithm:                Core
    Integral Cache:           NONE
    Schwarz Cutoff:          1E-12
    Fitting Condition:       1E-12

   => Auxiliary Basis Set <=

  Basis Set: (6-31G(D) AUX)
    Blend: CC-PVDZ-JKFIT
    Number of shells: 417
    Number of basis function: 1406
    Number of Cartesian functions: 1406
    Spherical Harmonics?: false
    Max angular momentum: 3

  Minimum eigenvalue in the overlap matrix is 3.8016557689E-04.
  Using Symmetric Orthogonalization.

  SCF Guess: Superposition of Atomic Densities via on-the-fly atomic UHF.

  ==> Iterations <==

                           Total Energy        Delta E     RMS |[F,P]|

   @DF-RHF iter   0: -1913.56848421268546   -1.91357e+03   1.08115e-01 
   @DF-RHF iter   1: -1908.46820443529759    5.10028e+00   1.33809e-02 
   @DF-RHF iter   2: -1908.77262238689718   -3.04418e-01   8.20628e-03 DIIS
   @DF-RHF iter   3: -1908.86351193091195   -9.08895e-02   2.11549e-03 DIIS
   @DF-RHF iter   4: -1908.87713135754348   -1.36194e-02   6.58938e-04 DIIS
   @DF-RHF iter   5: -1908.87844749857913   -1.31614e-03   2.69949e-04 DIIS
   @DF-RHF iter   6: -1908.87874378243237   -2.96284e-04   1.08082e-04 DIIS
   @DF-RHF iter   7: -1908.87880640688263   -6.26245e-05   3.66547e-05 DIIS
   @DF-RHF iter   8: -1908.87881383518970   -7.42831e-06   1.63134e-05 DIIS
   @DF-RHF iter   9: -1908.87881521558074   -1.38039e-06   6.85541e-06 DIIS
   @DF-RHF iter  10: -1908.87881553368288   -3.18102e-07   2.88492e-06 DIIS
   @DF-RHF iter  11: -1908.87881558261734   -4.89345e-08   1.11507e-06 DIIS
   @DF-RHF iter  12: -1908.87881559006087   -7.44353e-09   3.88086e-07 DIIS
   @DF-RHF iter  13: -1908.87881559089260   -8.31733e-10   1.41825e-07 DIIS
   @DF-RHF iter  14: -1908.87881559102289   -1.30285e-10   6.29750e-08 DIIS
   @DF-RHF iter  15: -1908.87881559104835   -2.54659e-11   2.46505e-08 DIIS
   @DF-RHF iter  16: -1908.87881559105335   -5.00222e-12   1.17106e-08 DIIS
   @DF-RHF iter  17: -1908.87881559105153    1.81899e-12   5.45789e-09 DIIS

  ==> Post-Iterations <==

    Orbital Energies [Eh]
    ---------------------

    Doubly Occupied:                                                      

       1A   -104.848374     2A   -104.844046     3A   -104.840106  
       4A    -20.635404     5A    -20.631227     6A    -20.571940  
       7A    -11.408247     8A    -11.348858     9A    -11.338128  
      10A    -11.331381    11A    -11.327126    12A    -11.323298  
      13A    -11.282764    14A    -11.275732    15A    -10.581667  
      16A    -10.577202    17A    -10.573119    18A     -8.051103  
      19A     -8.047584    20A     -8.047561    21A     -8.046654  
      22A     -8.043139    23A     -8.043112    24A     -8.042600  
      25A     -8.039068    26A     -8.039028    27A     -1.503217  
      28A     -1.465228    29A     -1.390989    30A     -1.243277  
      31A     -1.184467    32A     -1.152875    33A     -1.111150  
      34A     -1.062270    35A     -1.027973    36A     -0.979724  
      37A     -0.891725    38A     -0.854164    39A     -0.831752  
      40A     -0.762077    41A     -0.741673    42A     -0.723776  
      43A     -0.711440    44A     -0.695136    45A     -0.672031  
      46A     -0.651360    47A     -0.645300    48A     -0.607868  
      49A     -0.602647    50A     -0.598080    51A     -0.581510  
      52A     -0.567611    53A     -0.551296    54A     -0.532155  
      55A     -0.515422    56A     -0.499101    57A     -0.491177  
      58A     -0.484865    59A     -0.471418    60A     -0.465582  
      61A     -0.458296    62A     -0.450439    63A     -0.365729  
      64A     -0.335214  

    Virtual:                                                              

      65A      0.096137    66A      0.114861    67A      0.150179  
      68A      0.172687    69A      0.207024    70A      0.211669  
      71A      0.231707    72A      0.238764    73A      0.285354  
      74A      0.294752    75A      0.309686    76A      0.322326  
      77A      0.327045    78A      0.391123    79A      0.393289  
      80A      0.440885    81A      0.443791    82A      0.449680  
      83A      0.468001    84A      0.510119    85A      0.519727  
      86A      0.538230    87A      0.547754    88A      0.578941  
      89A      0.588545    90A      0.598604    91A      0.600745  
      92A      0.625225    93A      0.625971    94A      0.632622  
      95A      0.653393    96A      0.655159    97A      0.675096  
      98A      0.685579    99A      0.705424   100A      0.719155  
     101A      0.730581   102A      0.766880   103A      0.772023  
     104A      0.787382   105A      0.788869   106A      0.810174  
     107A      0.818971   108A      0.853258   109A      0.856482  
     110A      0.865273   111A      0.895680   112A      0.914370  
     113A      0.926305   114A      0.943132   115A      0.959844  
     116A      0.969153   117A      0.979603   118A      0.999233  
     119A      1.030737   120A      1.042279   121A      1.051137  
     122A      1.073122   123A      1.076930   124A      1.098780  
     125A      1.109206   126A      1.110180   127A      1.125394  
     128A      1.130894   129A      1.135110   130A      1.138511  
     131A      1.146850   132A      1.162484   133A      1.169116  
     134A      1.177082   135A      1.191637   136A      1.191985  
     137A      1.213461   138A      1.224487   139A      1.253360  
     140A      1.263368   141A      1.283175   142A      1.295721  
     143A      1.320275   144A      1.325067   145A      1.342369  
     146A      1.355706   147A      1.373850   148A      1.387808  
     149A      1.419425   150A      1.442599   151A      1.451849  
     152A      1.463757   153A      1.519657   154A      1.533103  
     155A      1.555619   156A      1.577127   157A      1.623744  
     158A      1.651093   159A      1.663134   160A      1.684556  
     161A      1.685104   162A      1.707910   163A      1.765940  
     164A      1.772235   165A      1.783834   166A      1.791038  
     167A      1.796293   168A      1.828617   169A      1.945607  
     170A      1.958622   171A      1.978678   172A      2.019176  
     173A      2.033766   174A      2.060098   175A      2.084719  
     176A      2.103527   177A      2.119698   178A      2.175058  
     179A      2.199799   180A      2.209072   181A      2.224733  
     182A      2.231422   183A      2.241161   184A      2.319375  
     185A      2.322938   186A      2.357529   187A      2.395586  
     188A      2.404838   189A      2.427583   190A      2.442526  
     191A      2.450277   192A      2.481830   193A      2.517626  
     194A      2.559455   195A      2.591663   196A      2.620856  
     197A      2.653300   198A      2.668453   199A      2.762849  
     200A      2.837767   201A      2.865821   202A      2.873100  
     203A      2.905457   204A      2.941877   205A      2.973491  
     206A      3.020393   207A      3.031824   208A      3.070082  
     209A      3.078230   210A      3.104342   211A      3.132060  
     212A      3.243669   213A      3.259203   214A      3.309443  
     215A      3.421251   216A      3.492455   217A      3.596579  
     218A      3.730979   219A      4.251321   220A      4.431126  
     221A      4.452579   222A      4.483675   223A      4.519840  
     224A      4.581519   225A      4.644725   226A      4.671258  
     227A      4.730712   228A      4.762120   229A      4.818039  
     230A      4.900373   231A      4.953965   232A      5.160569  

    Final Occupation by Irrep:
              A 
    DOCC [    64 ]

  Energy converged.

  @DF-RHF Final Energy: -1908.87881559105153

   => Energetics <=

    Nuclear Repulsion Energy =           1165.3092867954055691
    One-Electron Energy =               -4948.3392420878317353
    Two-Electron Energy =                1874.1511397013746318
    Total Energy =                      -1908.8788155910515343



Properties will be evaluated at   0.000000,   0.000000,   0.000000 [a0]

Properties computed using the SCF density matrix

  Nuclear Dipole Moment: [e a0]
     X:     9.0248      Y:     7.7658      Z:     6.1164

  Electronic Dipole Moment: [e a0]
     X:    -8.6219      Y:    -7.6840      Z:    -5.8697

  Dipole Moment: [e a0]
     X:     0.4030      Y:     0.0818      Z:     0.2467     Total:     0.4795

  Dipole Moment: [D]
     X:     1.0242      Y:     0.2080      Z:     0.6270     Total:     1.2188


*** tstop() called on wr60 at Thu Sep 27 13:05:58 2018
Module time:
	user time   =      97.38 seconds =       1.62 minutes
	system time =       2.57 seconds =       0.04 minutes
	total time  =          7 seconds =       0.12 minutes
Total time:
	user time   =     250.97 seconds =       4.18 minutes
	system time =       6.56 seconds =       0.11 minutes
	total time  =         19 seconds =       0.32 minutes

*** tstart() called on wr60
*** at Thu Sep 27 13:05:58 2018


         ------------------------------------------------------------
                                   SCF GRAD                          
                          Rob Parrish, Justin Turney,                
                       Andy Simmonett, and Alex Sokolov              
         ------------------------------------------------------------

  ==> Geometry <==

    Molecular point group: c1
    Full point group: C1

    Geometry (in Angstrom), charge = 0, multiplicity = 1:

       Center              X                  Y                   Z               Mass       
    ------------   -----------------  -----------------  -----------------  -----------------
         C            0.651937677853    -0.856200179285    -0.844609871737    12.000000000000
         O            1.595257680037     0.813961218029     0.486580355455    15.994914619560
         C            0.487791478638     0.183020757407     0.074831914982    12.000000000000
         C           -0.790045756004     0.496339936393     0.498493307827    12.000000000000
         H           -0.961001597218     1.287511147497     1.199081352258     1.007825032070
         O            3.004170477786     3.408841782377     2.344456810319    15.994914619560
         C           -1.889836523906    -0.207975629823     0.022995343880    12.000000000000
         C           -1.720431682467    -1.233365789239    -0.883525748373    12.000000000000
         C           -0.437236692807    -1.549140440506    -1.312261033111    12.000000000000
         H           -0.296909235616    -2.344548685150    -2.017058319482     1.007825032070
         C            1.506094754250     1.846674683478     1.417443516289    12.000000000000
         H            1.057140173495     1.504342640230     2.344500515963     1.007825032070
         H            0.923501112796     2.677422028525     1.039780624796     1.007825032070
         C            2.878173335368     2.382477804333     1.761586295291    12.000000000000
         O            3.879532522441     1.608336678902     1.402554437617    15.994914619560
         H            4.691067155139     2.023983634915     1.679623363492     1.007825032070
         CL          -3.050331652867    -2.147647884175    -1.512584302365    34.968852682000
         CL           2.235142437625    -1.280938287038    -1.404237137249    34.968852682000
         CL          -3.454718446323     0.248626118693     0.605778131389    34.968852682000

  Nuclear repulsion = 1165.309286795405569

  ==> Basis Set <==

  Basis Set: 6-31G(D)
    Blend: 6-31G(D)
    Number of shells: 100
    Number of basis function: 232
    Number of Cartesian functions: 232
    Spherical Harmonics?: false
    Max angular momentum: 2

  ==> DFJKGrad: Density-Fitted SCF Gradients <==

    Gradient:                    1
    J tasked:                  Yes
    K tasked:                  Yes
    wK tasked:                  No
    OpenMP threads:             16
    Integrals threads:          16
    Memory (MB):             78678
    Schwarz Cutoff:          0E+00
    Fitting Condition:       1E-12

   => Auxiliary Basis Set <=

  Basis Set: (6-31G(D) AUX)
    Blend: CC-PVDZ-JKFIT
    Number of shells: 417
    Number of basis function: 1406
    Number of Cartesian functions: 1406
    Spherical Harmonics?: false
    Max angular momentum: 3


  -Total Gradient:
     Atom            X                  Y                   Z
    ------   -----------------  -----------------  -----------------
       1       -0.001005104534    -0.000112056219     0.000000246711
       2        0.000008062443     0.000071101309     0.000060383226
       3        0.000203746451    -0.000097454334    -0.000095256651
       4       -0.000049532632    -0.000043421067    -0.000033555427
       5        0.000007279596    -0.000000165005    -0.000002155395
       6        0.000003699403     0.000003025795     0.000001506373
       7        0.000024833365     0.000047656689     0.000039448740
       8        0.000099811360    -0.000019970200    -0.000030875413
       9        0.000438705769     0.000213529069     0.000143855961
      10       -0.000013234869    -0.000006685044    -0.000005082704
      11        0.000010426671    -0.000004919944    -0.000005573985
      12       -0.000000600487     0.000000660732     0.000001065729
      13       -0.000000135380     0.000001389405     0.000000631919
      14       -0.000009677732     0.000000718679     0.000001370286
      15        0.000003251718    -0.000001452551    -0.000001136608
      16        0.000001480001     0.000000151553    -0.000000063257
      17        0.000000174428    -0.000001322868    -0.000002065783
      18        0.000278176809    -0.000050846291    -0.000072872330
      19       -0.000001362436     0.000000060281     0.000000128607


*** tstop() called on wr60 at Thu Sep 27 13:06:03 2018
Module time:
	user time   =      62.24 seconds =       1.04 minutes
	system time =       1.37 seconds =       0.02 minutes
	total time  =          5 seconds =       0.08 minutes
Total time:
	user time   =     313.25 seconds =       5.22 minutes
	system time =       7.93 seconds =       0.13 minutes
	total time  =         24 seconds =       0.40 minutes

  //>>>>>>>>>>>>>>>>>>>>>>>>>>>>>>>>>>>//
  //   Loading displacement 2 of 103   //
  //<<<<<<<<<<<<<<<<<<<<<<<<<<<<<<<<<<<//
gradient() will perform analytic gradient computation.

*** tstart() called on wr60
*** at Thu Sep 27 13:06:03 2018

   => Loading Basis Set <=

    Name: 6-31G(D)
    Role: ORBITAL
    Keyword: BASIS
    atoms 1, 3-4, 7-9, 11, 14 entry C          line   111 file /usr/local/hpc1/software_molmod/psi4/psi4conda/share/psi4/basis/6-31g_d_.gbs 
    atoms 2, 6, 15            entry O          line   145 file /usr/local/hpc1/software_molmod/psi4/psi4conda/share/psi4/basis/6-31g_d_.gbs 
    atoms 5, 10, 12-13, 16    entry H          line    44 file /usr/local/hpc1/software_molmod/psi4/psi4conda/share/psi4/basis/6-31g_d_.gbs 
    atoms 17-19               entry CL         line   340 file /usr/local/hpc1/software_molmod/psi4/psi4conda/share/psi4/basis/6-31g_d_.gbs 


         ---------------------------------------------------------
                                   SCF
            by Justin Turney, Rob Parrish, Andy Simmonett
                             and Daniel Smith
                              RHF Reference
                       16 Threads, 104904 MiB Core
         ---------------------------------------------------------

  ==> Geometry <==

    Molecular point group: c1
    Full point group: C1

    Geometry (in Angstrom), charge = 0, multiplicity = 1:

       Center              X                  Y                   Z               Mass       
    ------------   -----------------  -----------------  -----------------  -----------------
         C            0.653423428745    -0.856201765351    -0.844616501243    12.000000000000
         O            1.595191294295     0.813951702209     0.486570577847    15.994914619560
         C            0.487718766524     0.183018011324     0.074828779798    12.000000000000
         C           -0.790113735694     0.496343014583     0.498500138938    12.000000000000
         H           -0.961060306526     1.287513581374     1.199091173058     1.007825032070
         O            3.004131304374     3.408820704881     2.344442544209    15.994914619560
         C           -1.889911680838    -0.207965681571     0.023008599504    12.000000000000
         C           -1.720518843524    -1.233354733203    -0.883515988961    12.000000000000
         C           -0.437328636103    -1.549135225873    -1.312261284305    12.000000000000
         H           -0.297010502258    -2.344542654847    -2.017061347452     1.007825032070
         C            1.506040588034     1.846663581510     1.417436668742    12.000000000000
         H            1.057090923983     1.504331864162     2.344496169802     1.007825032070
         H            0.923448601186     2.677414843881     1.039779841842     1.007825032070
         C            2.878124501518     2.382458682055     1.761570674631    12.000000000000
         O            3.879476987055     1.608313052290     1.402529838413    15.994914619560
         H            4.691015829633     2.023955102045     1.679593793590     1.007825032070
         CL          -3.050428216501    -2.147628401115    -1.512566912633    34.968852682000
         CL           2.235051245751    -1.280947008300    -1.404256189805    34.968852682000
         CL          -3.454786957935     0.248643058160     0.605803753227    34.968852682000

  Running in c1 symmetry.

  Rotational constants: A =      0.02580  B =      0.00846  C =      0.00639 [cm^-1]
  Rotational constants: A =    773.48863  B =    253.55126  C =    191.55758 [MHz]
  Nuclear repulsion = 1165.305392832744701

  Charge       = 0
  Multiplicity = 1
  Electrons    = 128
  Nalpha       = 64
  Nbeta        = 64

  ==> Algorithm <==

  SCF Algorithm Type is DF.
  DIIS enabled.
  MOM disabled.
  Fractional occupation disabled.
  Guess Type is SAD.
  Energy threshold   = 1.00e-08
  Density threshold  = 1.00e-08
  Integral threshold = 0.00e+00

  ==> Primary Basis <==

  Basis Set: 6-31G(D)
    Blend: 6-31G(D)
    Number of shells: 100
    Number of basis function: 232
    Number of Cartesian functions: 232
    Spherical Harmonics?: false
    Max angular momentum: 2

   => Loading Basis Set <=

    Name: (6-31G(D) AUX)
    Role: JKFIT
    Keyword: DF_BASIS_SCF
    atoms 1, 3-4, 7-9, 11, 14 entry C          line   121 file /usr/local/hpc1/software_molmod/psi4/psi4conda/share/psi4/basis/cc-pvdz-jkfit.gbs 
    atoms 2, 6, 15            entry O          line   221 file /usr/local/hpc1/software_molmod/psi4/psi4conda/share/psi4/basis/cc-pvdz-jkfit.gbs 
    atoms 5, 10, 12-13, 16    entry H          line    51 file /usr/local/hpc1/software_molmod/psi4/psi4conda/share/psi4/basis/cc-pvdz-jkfit.gbs 
    atoms 17-19               entry CL         line   667 file /usr/local/hpc1/software_molmod/psi4/psi4conda/share/psi4/basis/cc-pvdz-jkfit.gbs 

  ==> Pre-Iterations <==

   -------------------------------------------------------
    Irrep   Nso     Nmo     Nalpha   Nbeta   Ndocc  Nsocc
   -------------------------------------------------------
     A        232     232       0       0       0       0
   -------------------------------------------------------
    Total     232     232      64      64      64       0
   -------------------------------------------------------

  ==> Integral Setup <==

  ==> DiskDFJK: Density-Fitted J/K Matrices <==

    J tasked:                  Yes
    K tasked:                  Yes
    wK tasked:                  No
    OpenMP threads:             16
    Integrals threads:          16
    Memory (MB):             78678
    Algorithm:                Core
    Integral Cache:           NONE
    Schwarz Cutoff:          1E-12
    Fitting Condition:       1E-12

   => Auxiliary Basis Set <=

  Basis Set: (6-31G(D) AUX)
    Blend: CC-PVDZ-JKFIT
    Number of shells: 417
    Number of basis function: 1406
    Number of Cartesian functions: 1406
    Spherical Harmonics?: false
    Max angular momentum: 3

  Minimum eigenvalue in the overlap matrix is 3.8088535636E-04.
  Using Symmetric Orthogonalization.

  SCF Guess: Superposition of Atomic Densities via on-the-fly atomic UHF.

  ==> Iterations <==

                           Total Energy        Delta E     RMS |[F,P]|

   @DF-RHF iter   0: -1915.69323702523457   -1.91569e+03   1.15112e-01 
   @DF-RHF iter   1: -1908.44939596005997    7.24384e+00   1.32182e-02 
   @DF-RHF iter   2: -1908.76762343784117   -3.18227e-01   8.03680e-03 DIIS
   @DF-RHF iter   3: -1908.86159281079881   -9.39694e-02   2.13535e-03 DIIS
   @DF-RHF iter   4: -1908.87670354584884   -1.51107e-02   7.22057e-04 DIIS
   @DF-RHF iter   5: -1908.87847552078847   -1.77197e-03   2.68568e-04 DIIS
   @DF-RHF iter   6: -1908.87876670599849   -2.91185e-04   9.76440e-05 DIIS
   @DF-RHF iter   7: -1908.87880939542947   -4.26894e-05   3.04966e-05 DIIS
   @DF-RHF iter   8: -1908.87881417100789   -4.77558e-06   1.48097e-05 DIIS
   @DF-RHF iter   9: -1908.87881525370972   -1.08270e-06   6.17089e-06 DIIS
   @DF-RHF iter  10: -1908.87881554329988   -2.89590e-07   2.68740e-06 DIIS
   @DF-RHF iter  11: -1908.87881558772278   -4.44229e-08   1.00801e-06 DIIS
   @DF-RHF iter  12: -1908.87881559353923   -5.81645e-09   3.87359e-07 DIIS
   @DF-RHF iter  13: -1908.87881559423181   -6.92580e-10   1.30405e-07 DIIS
   @DF-RHF iter  14: -1908.87881559434777   -1.15961e-10   5.25022e-08 DIIS
   @DF-RHF iter  15: -1908.87881559436346   -1.56888e-11   2.28859e-08 DIIS
   @DF-RHF iter  16: -1908.87881559436528   -1.81899e-12   1.08671e-08 DIIS
   @DF-RHF iter  17: -1908.87881559436710   -1.81899e-12   4.46336e-09 DIIS

  ==> Post-Iterations <==

    Orbital Energies [Eh]
    ---------------------

    Doubly Occupied:                                                      

       1A   -104.848352     2A   -104.844021     3A   -104.840252  
       4A    -20.635395     5A    -20.631156     6A    -20.571923  
       7A    -11.408227     8A    -11.348805     9A    -11.338107  
      10A    -11.331341    11A    -11.327091    12A    -11.323304  
      13A    -11.282826    14A    -11.275705    15A    -10.581645  
      16A    -10.577177    17A    -10.573285    18A     -8.051082  
      19A     -8.047562    20A     -8.047540    21A     -8.046629  
      22A     -8.043114    23A     -8.043087    24A     -8.042769  
      25A     -8.039233    26A     -8.039193    27A     -1.503202  
      28A     -1.465189    29A     -1.390976    30A     -1.243178  
      31A     -1.184632    32A     -1.152844    33A     -1.111253  
      34A     -1.062176    35A     -1.027863    36A     -0.979654  
      37A     -0.891670    38A     -0.854129    39A     -0.831672  
      40A     -0.762016    41A     -0.741587    42A     -0.723746  
      43A     -0.711406    44A     -0.695101    45A     -0.672062  
      46A     -0.651153    47A     -0.645269    48A     -0.607895  
      49A     -0.602756    50A     -0.598015    51A     -0.581533  
      52A     -0.567601    53A     -0.551293    54A     -0.532264  
      55A     -0.515504    56A     -0.499090    57A     -0.491191  
      58A     -0.484856    59A     -0.471414    60A     -0.465642  
      61A     -0.458280    62A     -0.450395    63A     -0.365572  
      64A     -0.335132  

    Virtual:                                                              

      65A      0.096015    66A      0.114955    67A      0.150308  
      68A      0.172705    69A      0.207234    70A      0.211744  
      71A      0.231720    72A      0.238784    73A      0.285373  
      74A      0.294774    75A      0.309709    76A      0.322335  
      77A      0.326940    78A      0.391176    79A      0.393299  
      80A      0.440545    81A      0.443748    82A      0.449694  
      83A      0.467869    84A      0.510158    85A      0.519619  
      86A      0.538269    87A      0.547783    88A      0.578931  
      89A      0.588449    90A      0.598628    91A      0.600719  
      92A      0.625295    93A      0.625871    94A      0.632610  
      95A      0.653401    96A      0.655192    97A      0.675198  
      98A      0.685498    99A      0.705459   100A      0.719216  
     101A      0.730599   102A      0.766914   103A      0.772080  
     104A      0.787425   105A      0.788878   106A      0.810091  
     107A      0.819088   108A      0.853215   109A      0.856475  
     110A      0.865306   111A      0.895672   112A      0.914444  
     113A      0.926344   114A      0.943177   115A      0.959905  
     116A      0.969104   117A      0.979602   118A      0.999342  
     119A      1.030743   120A      1.042232   121A      1.051027  
     122A      1.073141   123A      1.076958   124A      1.098830  
     125A      1.109216   126A      1.110155   127A      1.125474  
     128A      1.130899   129A      1.135010   130A      1.138478  
     131A      1.146772   132A      1.162367   133A      1.169066  
     134A      1.176929   135A      1.191588   136A      1.191927  
     137A      1.213547   138A      1.224494   139A      1.253404  
     140A      1.263430   141A      1.283048   142A      1.295896  
     143A      1.320296   144A      1.325164   145A      1.342350  
     146A      1.355673   147A      1.373863   148A      1.387799  
     149A      1.419443   150A      1.442685   151A      1.451918  
     152A      1.463665   153A      1.519645   154A      1.533133  
     155A      1.555477   156A      1.577057   157A      1.623761  
     158A      1.651192   159A      1.663174   160A      1.684463  
     161A      1.685058   162A      1.707982   163A      1.765842  
     164A      1.772297   165A      1.783814   166A      1.791004  
     167A      1.796368   168A      1.828647   169A      1.945613  
     170A      1.958637   171A      1.978669   172A      2.019276  
     173A      2.033663   174A      2.060106   175A      2.084580  
     176A      2.103521   177A      2.119625   178A      2.175031  
     179A      2.199908   180A      2.209222   181A      2.224870  
     182A      2.231538   183A      2.241367   184A      2.319393  
     185A      2.322921   186A      2.357411   187A      2.395457  
     188A      2.404854   189A      2.427286   190A      2.442300  
     191A      2.449995   192A      2.481791   193A      2.517717  
     194A      2.559236   195A      2.591122   196A      2.620856  
     197A      2.653437   198A      2.668450   199A      2.762872  
     200A      2.837927   201A      2.865770   202A      2.872881  
     203A      2.905356   204A      2.941577   205A      2.973152  
     206A      3.020285   207A      3.031781   208A      3.069677  
     209A      3.078208   210A      3.103553   211A      3.131985  
     212A      3.243632   213A      3.259321   214A      3.309420  
     215A      3.421153   216A      3.492520   217A      3.596361  
     218A      3.730575   219A      4.251310   220A      4.431153  
     221A      4.452358   222A      4.483543   223A      4.519841  
     224A      4.581523   225A      4.644755   226A      4.671156  
     227A      4.730794   228A      4.762089   229A      4.818191  
     230A      4.900293   231A      4.953883   232A      5.160034  

    Final Occupation by Irrep:
              A 
    DOCC [    64 ]

  Energy converged.

  @DF-RHF Final Energy: -1908.87881559436710

   => Energetics <=

    Nuclear Repulsion Energy =           1165.3053928327447011
    One-Electron Energy =               -4948.3323568898813392
    Two-Electron Energy =                1874.1481484627697682
    Total Energy =                      -1908.8788155943670972



Properties will be evaluated at   0.000000,   0.000000,   0.000000 [a0]

Properties computed using the SCF density matrix

  Nuclear Dipole Moment: [e a0]
     X:     9.0248      Y:     7.7658      Z:     6.1163

  Electronic Dipole Moment: [e a0]
     X:    -8.6195      Y:    -7.6847      Z:    -5.8707

  Dipole Moment: [e a0]
     X:     0.4053      Y:     0.0810      Z:     0.2456     Total:     0.4808

  Dipole Moment: [D]
     X:     1.0301      Y:     0.2059      Z:     0.6244     Total:     1.2221


*** tstop() called on wr60 at Thu Sep 27 13:06:10 2018
Module time:
	user time   =      96.76 seconds =       1.61 minutes
	system time =       2.45 seconds =       0.04 minutes
	total time  =          7 seconds =       0.12 minutes
Total time:
	user time   =     410.22 seconds =       6.84 minutes
	system time =      10.39 seconds =       0.17 minutes
	total time  =         31 seconds =       0.52 minutes

*** tstart() called on wr60
*** at Thu Sep 27 13:06:10 2018


         ------------------------------------------------------------
                                   SCF GRAD                          
                          Rob Parrish, Justin Turney,                
                       Andy Simmonett, and Alex Sokolov              
         ------------------------------------------------------------

  ==> Geometry <==

    Molecular point group: c1
    Full point group: C1

    Geometry (in Angstrom), charge = 0, multiplicity = 1:

       Center              X                  Y                   Z               Mass       
    ------------   -----------------  -----------------  -----------------  -----------------
         C            0.653423428745    -0.856201765351    -0.844616501243    12.000000000000
         O            1.595191294295     0.813951702209     0.486570577847    15.994914619560
         C            0.487718766524     0.183018011324     0.074828779798    12.000000000000
         C           -0.790113735694     0.496343014583     0.498500138938    12.000000000000
         H           -0.961060306526     1.287513581374     1.199091173058     1.007825032070
         O            3.004131304374     3.408820704881     2.344442544209    15.994914619560
         C           -1.889911680838    -0.207965681571     0.023008599504    12.000000000000
         C           -1.720518843524    -1.233354733203    -0.883515988961    12.000000000000
         C           -0.437328636103    -1.549135225873    -1.312261284305    12.000000000000
         H           -0.297010502258    -2.344542654847    -2.017061347452     1.007825032070
         C            1.506040588034     1.846663581510     1.417436668742    12.000000000000
         H            1.057090923983     1.504331864162     2.344496169802     1.007825032070
         H            0.923448601186     2.677414843881     1.039779841842     1.007825032070
         C            2.878124501518     2.382458682055     1.761570674631    12.000000000000
         O            3.879476987055     1.608313052290     1.402529838413    15.994914619560
         H            4.691015829633     2.023955102045     1.679593793590     1.007825032070
         CL          -3.050428216501    -2.147628401115    -1.512566912633    34.968852682000
         CL           2.235051245751    -1.280947008300    -1.404256189805    34.968852682000
         CL          -3.454786957935     0.248643058160     0.605803753227    34.968852682000

  Nuclear repulsion = 1165.305392832744701

  ==> Basis Set <==

  Basis Set: 6-31G(D)
    Blend: 6-31G(D)
    Number of shells: 100
    Number of basis function: 232
    Number of Cartesian functions: 232
    Spherical Harmonics?: false
    Max angular momentum: 2

  ==> DFJKGrad: Density-Fitted SCF Gradients <==

    Gradient:                    1
    J tasked:                  Yes
    K tasked:                  Yes
    wK tasked:                  No
    OpenMP threads:             16
    Integrals threads:          16
    Memory (MB):             78678
    Schwarz Cutoff:          0E+00
    Fitting Condition:       1E-12

   => Auxiliary Basis Set <=

  Basis Set: (6-31G(D) AUX)
    Blend: CC-PVDZ-JKFIT
    Number of shells: 417
    Number of basis function: 1406
    Number of Cartesian functions: 1406
    Spherical Harmonics?: false
    Max angular momentum: 3


  -Total Gradient:
     Atom            X                  Y                   Z
    ------   -----------------  -----------------  -----------------
       1        0.001004030946     0.000106751258    -0.000003464988
       2       -0.000009334846    -0.000070015381    -0.000057503642
       3       -0.000204901489     0.000100313435     0.000096587435
       4        0.000055473187     0.000045107714     0.000033101363
       5       -0.000007105744     0.000000826725     0.000002820673
       6       -0.000003902400    -0.000000348966    -0.000000210207
       7       -0.000025719865    -0.000052409398    -0.000041381126
       8       -0.000103895522     0.000022055079     0.000032497019
       9       -0.000434026225    -0.000211240554    -0.000143264685
      10        0.000013130197     0.000006774712     0.000005252275
      11       -0.000010153987     0.000002810914     0.000004553080
      12       -0.000000490063    -0.000000370296    -0.000001117491
      13       -0.000000045475    -0.000001055557    -0.000000835232
      14        0.000006840661    -0.000003502438    -0.000002441030
      15       -0.000003996186     0.000001331486     0.000000769250
      16        0.000002218112    -0.000000336799    -0.000000606189
      17        0.000000231390     0.000001063162     0.000001818670
      18       -0.000279296861     0.000051689279     0.000073393745
      19        0.000000944281     0.000000555585     0.000000031047


*** tstop() called on wr60 at Thu Sep 27 13:06:14 2018
Module time:
	user time   =      61.67 seconds =       1.03 minutes
	system time =       1.35 seconds =       0.02 minutes
	total time  =          4 seconds =       0.07 minutes
Total time:
	user time   =     471.92 seconds =       7.87 minutes
	system time =      11.74 seconds =       0.20 minutes
	total time  =         35 seconds =       0.58 minutes

  //>>>>>>>>>>>>>>>>>>>>>>>>>>>>>>>>>>>//
  //   Loading displacement 3 of 103   //
  //<<<<<<<<<<<<<<<<<<<<<<<<<<<<<<<<<<<//
gradient() will perform analytic gradient computation.

*** tstart() called on wr60
*** at Thu Sep 27 13:06:14 2018

   => Loading Basis Set <=

    Name: 6-31G(D)
    Role: ORBITAL
    Keyword: BASIS
    atoms 1, 3-4, 7-9, 11, 14 entry C          line   111 file /usr/local/hpc1/software_molmod/psi4/psi4conda/share/psi4/basis/6-31g_d_.gbs 
    atoms 2, 6, 15            entry O          line   145 file /usr/local/hpc1/software_molmod/psi4/psi4conda/share/psi4/basis/6-31g_d_.gbs 
    atoms 5, 10, 12-13, 16    entry H          line    44 file /usr/local/hpc1/software_molmod/psi4/psi4conda/share/psi4/basis/6-31g_d_.gbs 
    atoms 17-19               entry CL         line   340 file /usr/local/hpc1/software_molmod/psi4/psi4conda/share/psi4/basis/6-31g_d_.gbs 


         ---------------------------------------------------------
                                   SCF
            by Justin Turney, Rob Parrish, Andy Simmonett
                             and Daniel Smith
                              RHF Reference
                       16 Threads, 104904 MiB Core
         ---------------------------------------------------------

  ==> Geometry <==

    Molecular point group: c1
    Full point group: C1

    Geometry (in Angstrom), charge = 0, multiplicity = 1:

       Center              X                  Y                   Z               Mass       
    ------------   -----------------  -----------------  -----------------  -----------------
         C            0.652680553299    -0.856940006012    -0.844625806273    12.000000000000
         O            1.595222371699     0.813996645060     0.486577714529    15.994914619560
         C            0.487754525643     0.183058411581     0.074830284927    12.000000000000
         C           -0.790080132413     0.496368934495     0.498505850693    12.000000000000
         H           -0.961032431781     1.287530944833     1.199105149733     1.007825032070
         O            3.004143254022     3.408857713123     2.344475268694    15.994914619560
         C           -1.889872863619    -0.207943588110     0.023007919508    12.000000000000
         C           -1.720472600756    -1.233321978645    -0.883527340390    12.000000000000
         C           -0.437280221955    -1.549087896359    -1.312276871735    12.000000000000
         H           -0.296956329248    -2.344486968301    -2.017085219729     1.007825032070
         C            1.506064200642     1.846698248849     1.417454490236    12.000000000000
         H            1.057117964273     1.504353444215     2.344510818540     1.007825032070
         H            0.923465339865     2.677448777192     1.039806652661     1.007825032070
         C            2.878144134100     2.382500683671     1.761592945555    12.000000000000
         O            3.879502476734     1.608366679138     1.402543378863    15.994914619560
         H            4.691038239613     2.024012311077     1.679610980726     1.007825032070
         CL          -3.050375214553    -2.147599717769    -1.512586636697    34.968852682000
         CL           2.235097463847    -1.280877558112    -1.404271081788    34.968852682000
         CL          -3.454751309134     0.248646761093     0.605808974205    34.968852682000

  Running in c1 symmetry.

  Rotational constants: A =      0.02580  B =      0.00846  C =      0.00639 [cm^-1]
  Rotational constants: A =    773.48666  B =    253.55101  C =    191.55727 [MHz]
  Nuclear repulsion = 1165.303028901427297

  Charge       = 0
  Multiplicity = 1
  Electrons    = 128
  Nalpha       = 64
  Nbeta        = 64

  ==> Algorithm <==

  SCF Algorithm Type is DF.
  DIIS enabled.
  MOM disabled.
  Fractional occupation disabled.
  Guess Type is SAD.
  Energy threshold   = 1.00e-08
  Density threshold  = 1.00e-08
  Integral threshold = 0.00e+00

  ==> Primary Basis <==

  Basis Set: 6-31G(D)
    Blend: 6-31G(D)
    Number of shells: 100
    Number of basis function: 232
    Number of Cartesian functions: 232
    Spherical Harmonics?: false
    Max angular momentum: 2

   => Loading Basis Set <=

    Name: (6-31G(D) AUX)
    Role: JKFIT
    Keyword: DF_BASIS_SCF
    atoms 1, 3-4, 7-9, 11, 14 entry C          line   121 file /usr/local/hpc1/software_molmod/psi4/psi4conda/share/psi4/basis/cc-pvdz-jkfit.gbs 
    atoms 2, 6, 15            entry O          line   221 file /usr/local/hpc1/software_molmod/psi4/psi4conda/share/psi4/basis/cc-pvdz-jkfit.gbs 
    atoms 5, 10, 12-13, 16    entry H          line    51 file /usr/local/hpc1/software_molmod/psi4/psi4conda/share/psi4/basis/cc-pvdz-jkfit.gbs 
    atoms 17-19               entry CL         line   667 file /usr/local/hpc1/software_molmod/psi4/psi4conda/share/psi4/basis/cc-pvdz-jkfit.gbs 

  ==> Pre-Iterations <==

   -------------------------------------------------------
    Irrep   Nso     Nmo     Nalpha   Nbeta   Ndocc  Nsocc
   -------------------------------------------------------
     A        232     232       0       0       0       0
   -------------------------------------------------------
    Total     232     232      64      64      64       0
   -------------------------------------------------------

  ==> Integral Setup <==

  ==> DiskDFJK: Density-Fitted J/K Matrices <==

    J tasked:                  Yes
    K tasked:                  Yes
    wK tasked:                  No
    OpenMP threads:             16
    Integrals threads:          16
    Memory (MB):             78678
    Algorithm:                Core
    Integral Cache:           NONE
    Schwarz Cutoff:          1E-12
    Fitting Condition:       1E-12

   => Auxiliary Basis Set <=

  Basis Set: (6-31G(D) AUX)
    Blend: CC-PVDZ-JKFIT
    Number of shells: 417
    Number of basis function: 1406
    Number of Cartesian functions: 1406
    Spherical Harmonics?: false
    Max angular momentum: 3

  Minimum eigenvalue in the overlap matrix is 3.8060663158E-04.
  Using Symmetric Orthogonalization.

  SCF Guess: Superposition of Atomic Densities via on-the-fly atomic UHF.

  ==> Iterations <==

                           Total Energy        Delta E     RMS |[F,P]|

   @DF-RHF iter   0: -1915.90695930174047   -1.91591e+03   1.11572e-01 
   @DF-RHF iter   1: -1908.43912248324568    7.46784e+00   1.36942e-02 
   @DF-RHF iter   2: -1908.75377264661711   -3.14650e-01   8.57936e-03 DIIS
   @DF-RHF iter   3: -1908.86033523661877   -1.06563e-01   2.01076e-03 DIIS
   @DF-RHF iter   4: -1908.87639862626156   -1.60634e-02   7.77984e-04 DIIS
   @DF-RHF iter   5: -1908.87841510287922   -2.01648e-03   2.85888e-04 DIIS
   @DF-RHF iter   6: -1908.87876755797697   -3.52455e-04   1.09278e-04 DIIS
   @DF-RHF iter   7: -1908.87881075605583   -4.31981e-05   3.18742e-05 DIIS
   @DF-RHF iter   8: -1908.87881480325450   -4.04720e-06   1.38636e-05 DIIS
   @DF-RHF iter   9: -1908.87881559884545   -7.95591e-07   5.84654e-06 DIIS
   @DF-RHF iter  10: -1908.87881577477719   -1.75932e-07   2.23915e-06 DIIS
   @DF-RHF iter  11: -1908.87881580490216   -3.01250e-08   9.95035e-07 DIIS
   @DF-RHF iter  12: -1908.87881581200736   -7.10520e-09   4.35479e-07 DIIS
   @DF-RHF iter  13: -1908.87881581340525   -1.39789e-09   1.81515e-07 DIIS
   @DF-RHF iter  14: -1908.87881581369561   -2.90356e-10   6.72332e-08 DIIS
   @DF-RHF iter  15: -1908.87881581372517   -2.95586e-11   2.29982e-08 DIIS
   @DF-RHF iter  16: -1908.87881581372585   -6.82121e-13   9.92539e-09 DIIS

  ==> Post-Iterations <==

    Orbital Energies [Eh]
    ---------------------

    Doubly Occupied:                                                      

       1A   -104.848355     2A   -104.844025     3A   -104.840200  
       4A    -20.635405     5A    -20.631215     6A    -20.571936  
       7A    -11.408242     8A    -11.348891     9A    -11.338106  
      10A    -11.331367    11A    -11.327091    12A    -11.323314  
      13A    -11.282738    14A    -11.275694    15A    -10.581648  
      16A    -10.577181    17A    -10.573226    18A     -8.051084  
      19A     -8.047565    20A     -8.047542    21A     -8.046632  
      22A     -8.043118    23A     -8.043091    24A     -8.042708  
      25A     -8.039174    26A     -8.039134    27A     -1.503215  
      28A     -1.465212    29A     -1.390987    30A     -1.243217  
      31A     -1.184571    32A     -1.152847    33A     -1.111202  
      34A     -1.062228    35A     -1.027950    36A     -0.979643  
      37A     -0.891647    38A     -0.854132    39A     -0.831740  
      40A     -0.762034    41A     -0.741644    42A     -0.723763  
      43A     -0.711429    44A     -0.695108    45A     -0.672048  
      46A     -0.651237    47A     -0.645281    48A     -0.607887  
      49A     -0.602738    50A     -0.598041    51A     -0.581513  
      52A     -0.567629    53A     -0.551284    54A     -0.532169  
      55A     -0.515498    56A     -0.499088    57A     -0.491194  
      58A     -0.484851    59A     -0.471422    60A     -0.465617  
      61A     -0.458296    62A     -0.450412    63A     -0.365692  
      64A     -0.335110  

    Virtual:                                                              

      65A      0.096130    66A      0.114884    67A      0.150259  
      68A      0.172690    69A      0.207158    70A      0.211714  
      71A      0.231728    72A      0.238780    73A      0.285362  
      74A      0.294763    75A      0.309711    76A      0.322331  
      77A      0.326969    78A      0.391127    79A      0.393304  
      80A      0.440702    81A      0.443779    82A      0.449681  
      83A      0.467925    84A      0.510143    85A      0.519637  
      86A      0.538256    87A      0.547766    88A      0.578901  
      89A      0.588455    90A      0.598624    91A      0.600731  
      92A      0.625251    93A      0.625900    94A      0.632601  
      95A      0.653403    96A      0.655189    97A      0.675112  
      98A      0.685552    99A      0.705441   100A      0.719196  
     101A      0.730586   102A      0.766896   103A      0.772039  
     104A      0.787398   105A      0.788890   106A      0.810234  
     107A      0.819037   108A      0.853243   109A      0.856474  
     110A      0.865318   111A      0.895625   112A      0.914408  
     113A      0.926327   114A      0.943150   115A      0.959886  
     116A      0.969104   117A      0.979596   118A      0.999317  
     119A      1.030733   120A      1.042270   121A      1.051124  
     122A      1.073128   123A      1.076943   124A      1.098815  
     125A      1.109202   126A      1.110191   127A      1.125398  
     128A      1.130902   129A      1.135054   130A      1.138497  
     131A      1.146799   132A      1.162427   133A      1.169081  
     134A      1.176970   135A      1.191605   136A      1.191946  
     137A      1.213519   138A      1.224487   139A      1.253374  
     140A      1.263405   141A      1.283170   142A      1.295798  
     143A      1.320283   144A      1.325134   145A      1.342350  
     146A      1.355649   147A      1.373899   148A      1.387807  
     149A      1.419445   150A      1.442685   151A      1.451884  
     152A      1.463653   153A      1.519694   154A      1.533112  
     155A      1.555624   156A      1.577125   157A      1.623763  
     158A      1.651180   159A      1.663149   160A      1.684596  
     161A      1.685001   162A      1.708022   163A      1.765858  
     164A      1.772244   165A      1.783781   166A      1.790991  
     167A      1.796316   168A      1.828658   169A      1.945578  
     170A      1.958618   171A      1.978710   172A      2.019091  
     173A      2.033576   174A      2.060094   175A      2.084655  
     176A      2.103504   177A      2.119770   178A      2.174998  
     179A      2.199867   180A      2.209154   181A      2.224765  
     182A      2.231406   183A      2.241336   184A      2.319305  
     185A      2.322928   186A      2.357457   187A      2.395640  
     188A      2.404847   189A      2.427398   190A      2.442425  
     191A      2.450137   192A      2.481813   193A      2.517684  
     194A      2.559247   195A      2.591597   196A      2.620805  
     197A      2.653300   198A      2.668446   199A      2.762864  
     200A      2.837875   201A      2.865729   202A      2.872894  
     203A      2.905437   204A      2.941671   205A      2.973268  
     206A      3.020282   207A      3.031715   208A      3.069866  
     209A      3.078390   210A      3.103908   211A      3.132043  
     212A      3.243701   213A      3.259252   214A      3.309416  
     215A      3.421200   216A      3.492485   217A      3.596304  
     218A      3.730633   219A      4.251306   220A      4.431156  
     221A      4.452451   222A      4.483685   223A      4.519803  
     224A      4.581494   225A      4.644738   226A      4.671239  
     227A      4.730777   228A      4.762126   229A      4.818081  
     230A      4.900265   231A      4.953863   232A      5.160225  

    Final Occupation by Irrep:
              A 
    DOCC [    64 ]

  Energy converged.

  @DF-RHF Final Energy: -1908.87881581372585

   => Energetics <=

    Nuclear Repulsion Energy =           1165.3030289014272967
    One-Electron Energy =               -4948.3271738037838077
    Two-Electron Energy =                1874.1453290886306604
    Total Energy =                      -1908.8788158137258506



Properties will be evaluated at   0.000000,   0.000000,   0.000000 [a0]

Properties computed using the SCF density matrix

  Nuclear Dipole Moment: [e a0]
     X:     9.0248      Y:     7.7658      Z:     6.1164

  Electronic Dipole Moment: [e a0]
     X:    -8.6199      Y:    -7.6843      Z:    -5.8704

  Dipole Moment: [e a0]
     X:     0.4048      Y:     0.0815      Z:     0.2460     Total:     0.4807

  Dipole Moment: [D]
     X:     1.0290      Y:     0.2072      Z:     0.6254     Total:     1.2218


*** tstop() called on wr60 at Thu Sep 27 13:06:22 2018
Module time:
	user time   =      94.85 seconds =       1.58 minutes
	system time =       2.47 seconds =       0.04 minutes
	total time  =          8 seconds =       0.13 minutes
Total time:
	user time   =     566.95 seconds =       9.45 minutes
	system time =      14.21 seconds =       0.24 minutes
	total time  =         43 seconds =       0.72 minutes

*** tstart() called on wr60
*** at Thu Sep 27 13:06:22 2018


         ------------------------------------------------------------
                                   SCF GRAD                          
                          Rob Parrish, Justin Turney,                
                       Andy Simmonett, and Alex Sokolov              
         ------------------------------------------------------------

  ==> Geometry <==

    Molecular point group: c1
    Full point group: C1

    Geometry (in Angstrom), charge = 0, multiplicity = 1:

       Center              X                  Y                   Z               Mass       
    ------------   -----------------  -----------------  -----------------  -----------------
         C            0.652680553299    -0.856940006012    -0.844625806273    12.000000000000
         O            1.595222371699     0.813996645060     0.486577714529    15.994914619560
         C            0.487754525643     0.183058411581     0.074830284927    12.000000000000
         C           -0.790080132413     0.496368934495     0.498505850693    12.000000000000
         H           -0.961032431781     1.287530944833     1.199105149733     1.007825032070
         O            3.004143254022     3.408857713123     2.344475268694    15.994914619560
         C           -1.889872863619    -0.207943588110     0.023007919508    12.000000000000
         C           -1.720472600756    -1.233321978645    -0.883527340390    12.000000000000
         C           -0.437280221955    -1.549087896359    -1.312276871735    12.000000000000
         H           -0.296956329248    -2.344486968301    -2.017085219729     1.007825032070
         C            1.506064200642     1.846698248849     1.417454490236    12.000000000000
         H            1.057117964273     1.504353444215     2.344510818540     1.007825032070
         H            0.923465339865     2.677448777192     1.039806652661     1.007825032070
         C            2.878144134100     2.382500683671     1.761592945555    12.000000000000
         O            3.879502476734     1.608366679138     1.402543378863    15.994914619560
         H            4.691038239613     2.024012311077     1.679610980726     1.007825032070
         CL          -3.050375214553    -2.147599717769    -1.512586636697    34.968852682000
         CL           2.235097463847    -1.280877558112    -1.404271081788    34.968852682000
         CL          -3.454751309134     0.248646761093     0.605808974205    34.968852682000

  Nuclear repulsion = 1165.303028901427297

  ==> Basis Set <==

  Basis Set: 6-31G(D)
    Blend: 6-31G(D)
    Number of shells: 100
    Number of basis function: 232
    Number of Cartesian functions: 232
    Spherical Harmonics?: false
    Max angular momentum: 2

[...]
     12   H                0.02  0.14  0.14    0.11  0.11  0.13    0.04  0.19  0.20   
     13   H                0.01  0.16  0.13    0.03  0.17  0.16   -0.00  0.24  0.20   
     14   C                0.00 -0.01 -0.01    0.02 -0.02  0.01    0.02 -0.01 -0.01   
     15   O                0.00 -0.01 -0.00   -0.01  0.01  0.00   -0.00 -0.00 -0.00   
     16   H               -0.05  0.08  0.04   -0.02  0.02  0.01   -0.05  0.07  0.04   
     17   CL               0.02  0.02  0.01   -0.01 -0.01 -0.01   -0.00  0.00  0.00   
     18   CL              -0.05  0.02  0.02    0.02 -0.00 -0.00    0.02 -0.01 -0.01   
     19   CL              -0.01  0.01  0.01   -0.01  0.01  0.01    0.00 -0.00 -0.00   

  Vibration                       40                  41                  42          
  Freq [cm^-1]                1283.6797           1344.9470           1397.7063       
  Irrep                           A                   A                   A           
  Reduced mass [u]              2.9724              1.8719              1.2982        
  Force const [mDyne/A]         2.8858              1.9950              1.4943        
  Turning point v=0 [a0]        0.1776              0.2187              0.2576        
  RMS dev v=0 [a0 u^1/2]        0.2166              0.2116              0.2075        
  Char temp [K]               1846.9265           1935.0763           2010.9851       
  ----------------------------------------------------------------------------------
      1   C                0.08  0.06  0.04   -0.01  0.00  0.00   -0.00  0.04  0.03   
      2   O                0.00  0.06  0.05    0.00  0.02 -0.00    0.02  0.00  0.00   
      3   C                0.06 -0.09 -0.09   -0.03 -0.01 -0.00   -0.05  0.01  0.02   
      4   C               -0.05  0.07  0.07    0.00 -0.01 -0.01    0.02  0.02  0.02   
      5   H                0.59  0.19  0.10    0.08  0.01 -0.01    0.71  0.14  0.04   
      6   O                0.00  0.01  0.01    0.00  0.09  0.05    0.00 -0.00 -0.00   
      7   C               -0.15  0.11  0.11    0.02 -0.01 -0.01   -0.05 -0.06 -0.04   
      8   C               -0.13 -0.17 -0.13    0.01  0.00  0.00    0.07 -0.04 -0.05   
      9   C               -0.03 -0.05 -0.04   -0.00  0.01  0.01   -0.01  0.02  0.02   
     10   H                0.65  0.05 -0.03   -0.03  0.01  0.01   -0.65 -0.08  0.01   
     11   C                0.00 -0.06 -0.05    0.06 -0.02  0.00   -0.02 -0.01 -0.00   
     12   H                0.03 -0.00 -0.01    0.09  0.16  0.10   -0.00 -0.01  0.00   
     13   H                0.03 -0.02 -0.03    0.04 -0.08 -0.09    0.02  0.04  0.02   
     14   C               -0.01  0.00  0.00   -0.11  0.03  0.02   -0.00  0.00 -0.00   
     15   O                0.01 -0.01 -0.00    0.07 -0.15 -0.08    0.00  0.01  0.00   
     16   H                0.01 -0.01 -0.00   -0.49  0.71  0.35    0.04 -0.06 -0.03   
     17   CL               0.02  0.02  0.01   -0.00 -0.00 -0.00   -0.00  0.00  0.00   
     18   CL              -0.01  0.00  0.00    0.00 -0.00 -0.00    0.00 -0.00 -0.00   
     19   CL               0.02 -0.01 -0.01   -0.00  0.00  0.00    0.00  0.00  0.00   

  Vibration                       43                  44                  45          
  Freq [cm^-1]                1403.0328           1430.3399           1500.5286       
  Irrep                           A                   A                   A           
  Reduced mass [u]              1.0868              4.7359              5.4715        
  Force const [mDyne/A]         1.2605              5.7086              7.2585        
  Turning point v=0 [a0]        0.2810              0.1333              0.1211        
  RMS dev v=0 [a0 u^1/2]        0.2071              0.2052              0.2003        
  Char temp [K]               2018.6487           2057.9376           2158.9232       
  ----------------------------------------------------------------------------------
      1   C               -0.00 -0.00  0.00    0.22  0.15  0.10   -0.17 -0.10 -0.06   
      2   O               -0.00  0.02 -0.03   -0.12 -0.17 -0.14   -0.13 -0.04 -0.02   
      3   C               -0.00  0.00 -0.00    0.15  0.15  0.11    0.33  0.01 -0.03   
      4   C                0.00 -0.00  0.00    0.06 -0.02 -0.03    0.06  0.14  0.11   
      5   H                0.01  0.03 -0.03   -0.22 -0.07 -0.04   -0.32  0.10  0.12   
      6   O                0.00 -0.01 -0.02   -0.01  0.01  0.00   -0.02  0.01  0.00   
      7   C               -0.00 -0.00 -0.00   -0.06  0.07  0.07   -0.26 -0.08 -0.04   
      8   C                0.00 -0.00 -0.00   -0.17 -0.05 -0.02    0.22 -0.06 -0.07   
      9   C                0.00  0.00  0.00    0.02 -0.15 -0.13   -0.04  0.10  0.09   
     10   H               -0.01  0.00 -0.00   -0.66 -0.29 -0.17   -0.01  0.12  0.11   
     11   C               -0.00 -0.01  0.02   -0.01  0.09  0.08    0.02  0.05  0.04   
     12   H                0.31  0.51  0.38   -0.01  0.02  0.04   -0.13 -0.22 -0.15   
     13   H               -0.33 -0.45 -0.40   -0.06 -0.01 -0.03   -0.20 -0.24 -0.22   
     14   C               -0.00 -0.03  0.05    0.04 -0.01  0.00    0.16 -0.03 -0.00   
     15   O                0.00  0.02  0.00   -0.01 -0.02 -0.01   -0.06 -0.01 -0.01   
     16   H                0.08 -0.11 -0.06   -0.16  0.21  0.11   -0.27  0.34  0.16   
     17   CL              -0.00 -0.00 -0.00    0.02  0.01  0.00   -0.01  0.00  0.00   
     18   CL               0.00 -0.00 -0.00   -0.02 -0.00  0.00    0.01  0.00  0.00   
     19   CL               0.00  0.00  0.00    0.01 -0.01 -0.01    0.01  0.00 -0.00   

  Vibration                       46                  47                  48          
  Freq [cm^-1]                1530.9162           1588.8129           1641.7106       
  Irrep                           A                   A                   A           
  Reduced mass [u]              1.7613              2.7052              1.1632        
  Force const [mDyne/A]         2.4322              4.0234              1.8472        
  Turning point v=0 [a0]        0.2113              0.1674              0.2511        
  RMS dev v=0 [a0 u^1/2]        0.1983              0.1947              0.1915        
  Char temp [K]               2202.6441           2285.9445           2362.0524       
  ----------------------------------------------------------------------------------
      1   C                0.03  0.00  0.00   -0.00  0.01  0.01   -0.02  0.02  0.02   
      2   O                0.02  0.03  0.02    0.05  0.02  0.01    0.01  0.01  0.00   
      3   C               -0.09 -0.01  0.00   -0.02 -0.01 -0.01   -0.02 -0.03 -0.02   
      4   C               -0.04 -0.03 -0.02    0.00  0.00  0.00    0.04  0.01  0.00   
      5   H                0.24  0.01 -0.02   -0.07 -0.01 -0.00   -0.14 -0.02 -0.00   
      6   O               -0.03 -0.01 -0.01   -0.02  0.05  0.02   -0.00 -0.00 -0.00   
      7   C                0.07  0.02  0.01    0.01 -0.01 -0.01   -0.02  0.01  0.01   
      8   C               -0.03  0.01  0.01   -0.02  0.02  0.02   -0.01 -0.02 -0.02   
      9   C               -0.00 -0.01 -0.01    0.02 -0.01 -0.01    0.03  0.01  0.00   
     10   H                0.06 -0.00 -0.01   -0.05 -0.02 -0.01   -0.12 -0.02 -0.00   
     11   C                0.04  0.06  0.04   -0.18 -0.12 -0.09    0.06 -0.03 -0.04   
     12   H               -0.33 -0.34 -0.29    0.37  0.33  0.36   -0.47  0.49 -0.08   
     13   H               -0.39 -0.41 -0.31    0.28  0.36  0.22   -0.40 -0.06  0.57   
     14   C                0.18 -0.02 -0.01    0.26 -0.07 -0.01    0.02  0.00 -0.00   
     15   O               -0.06  0.00 -0.00   -0.09  0.01 -0.00   -0.01  0.00  0.00   
     16   H               -0.23  0.27  0.13   -0.29  0.32  0.15   -0.01  0.01  0.01   
     17   CL               0.00 -0.00 -0.00    0.00 -0.00 -0.00    0.00  0.00  0.00   
     18   CL              -0.00 -0.00 -0.00   -0.00 -0.00 -0.00    0.00 -0.00 -0.00   
     19   CL              -0.00  0.00  0.00   -0.00  0.00  0.00    0.00 -0.00 -0.00   

  Vibration                       49                  50                  51          
  Freq [cm^-1]                1667.9873           1751.7814           1791.5219       
  Irrep                           A                   A                   A           
  Reduced mass [u]              2.5427             10.1491              6.1767        
  Force const [mDyne/A]         4.1680             18.3500             11.6801        
  Turning point v=0 [a0]        0.1685              0.0823              0.1043        
  RMS dev v=0 [a0 u^1/2]        0.1900              0.1854              0.1833        
  Char temp [K]               2399.8587           2520.4196           2577.5973       
  ----------------------------------------------------------------------------------
      1   C               -0.10  0.05  0.05    0.01 -0.28 -0.24    0.22  0.13  0.08   
      2   O                0.03  0.05  0.04    0.03 -0.03 -0.03    0.03  0.02  0.01   
      3   C               -0.10 -0.13 -0.10   -0.21  0.31  0.30   -0.26 -0.05 -0.02   
      4   C                0.13  0.02  0.00    0.12 -0.14 -0.14    0.35  0.07  0.02   
      5   H               -0.55 -0.10 -0.02   -0.13 -0.21 -0.17   -0.53 -0.09 -0.01   
      6   O               -0.00 -0.00 -0.00   -0.00  0.01  0.00   -0.00 -0.00 -0.00   
      7   C               -0.05  0.07  0.07   -0.01  0.31  0.27   -0.17 -0.11 -0.07   
      8   C               -0.07 -0.08 -0.07    0.17 -0.29 -0.28    0.17  0.03  0.01   
      9   C                0.18  0.04  0.01   -0.09  0.12  0.12   -0.34 -0.08 -0.03   
     10   H               -0.52 -0.07  0.00    0.07  0.17  0.14    0.47  0.04 -0.02   
     11   C               -0.00  0.02  0.02   -0.04 -0.02 -0.01   -0.00  0.02  0.01   
     12   H                0.18 -0.32 -0.03    0.05  0.08  0.07    0.02 -0.10 -0.02   
     13   H                0.14 -0.05 -0.34    0.05  0.08  0.06    0.00 -0.03 -0.11   
     14   C               -0.01  0.00 -0.00    0.03 -0.01 -0.00    0.01 -0.00 -0.00   
     15   O                0.00  0.00  0.00   -0.01  0.00  0.00   -0.00  0.00  0.00   
     16   H                0.01 -0.02 -0.01   -0.02  0.02  0.01   -0.00 -0.00 -0.00   
     17   CL               0.00  0.00  0.00    0.00  0.00  0.00   -0.00 -0.00 -0.00   
     18   CL               0.01 -0.00 -0.00   -0.00  0.00  0.00   -0.00 -0.00 -0.00   
     19   CL               0.00 -0.00 -0.00    0.00 -0.00 -0.00    0.00  0.00  0.00   

  Vibration                       52                  53                  54          
  Freq [cm^-1]                2035.7345           3228.7403           3289.2339       
  Irrep                           A                   A                   A           
  Reduced mass [u]             10.1187              1.0610              1.1043        
  Force const [mDyne/A]        24.7068              6.5169              7.0391        
  Turning point v=0 [a0]        0.0765              0.1875              0.1821        
  RMS dev v=0 [a0 u^1/2]        0.1720              0.1365              0.1353        
  Char temp [K]               2928.9642           4645.4313           4732.4680       
  ----------------------------------------------------------------------------------
      1   C                0.00  0.00  0.00   -0.00 -0.00 -0.00   -0.00 -0.00  0.00   
      2   O               -0.00 -0.00 -0.00   -0.00 -0.00 -0.00   -0.00  0.00 -0.00   
      3   C               -0.00 -0.00 -0.00    0.00  0.00  0.00    0.00  0.00 -0.00   
      4   C                0.00  0.00  0.00   -0.00  0.00  0.00   -0.00  0.00  0.00   
      5   H               -0.02 -0.00 -0.00    0.00 -0.02 -0.02    0.00 -0.01 -0.01   
      6   O               -0.06 -0.39 -0.22    0.00  0.00  0.00   -0.00  0.00  0.00   
      7   C               -0.00 -0.00  0.00   -0.00  0.00  0.00   -0.00 -0.00  0.00   
      8   C                0.00 -0.00 -0.00   -0.00 -0.00 -0.00   -0.00 -0.00  0.00   
      9   C               -0.00 -0.00 -0.00    0.00 -0.00 -0.00    0.00 -0.00  0.00   
     10   H                0.00  0.00 -0.00   -0.00  0.00  0.00   -0.00  0.00  0.00   
     11   C               -0.05 -0.06 -0.03    0.05 -0.00 -0.05    0.02 -0.07  0.06   
     12   H                0.08  0.05  0.08   -0.36 -0.29  0.74    0.20  0.15 -0.39   
     13   H                0.15  0.16  0.05   -0.25  0.37 -0.18   -0.48  0.67 -0.32   
     14   C                0.12  0.63  0.36   -0.00 -0.00 -0.00   -0.00 -0.00  0.00   
     15   O                0.01 -0.07 -0.04   -0.00  0.00  0.00   -0.00  0.00  0.00   
     16   H               -0.23  0.32  0.16   -0.00 -0.00 -0.00   -0.00 -0.00  0.00   
     17   CL               0.00  0.00  0.00   -0.00 -0.00  0.00   -0.00  0.00 -0.00   
     18   CL               0.00 -0.00 -0.00    0.00  0.00  0.00    0.00  0.00  0.00   
     19   CL               0.00 -0.00 -0.00   -0.00 -0.00 -0.00    0.00 -0.00 -0.00   

  Vibration                       55                  56                  57          
  Freq [cm^-1]                3420.5904           3430.7223           4047.4726       
  Irrep                           A                   A                   A           
  Reduced mass [u]              1.0939              1.0923              1.0652        
  Force const [mDyne/A]         7.5413              7.5743             10.2811        
  Turning point v=0 [a0]        0.1794              0.1792              0.1671        
  RMS dev v=0 [a0 u^1/2]        0.1327              0.1325              0.1220        
  Char temp [K]               4921.4605           4936.0380           5823.4030       
  ----------------------------------------------------------------------------------
      1   C                0.00  0.00  0.00   -0.00  0.00  0.00    0.00  0.00  0.00   
      2   O               -0.00 -0.00 -0.00    0.00 -0.00 -0.00    0.00  0.00  0.00   
      3   C               -0.00  0.00  0.00   -0.00  0.00  0.00   -0.00 -0.00 -0.00   
      4   C                0.00 -0.00 -0.00    0.01 -0.06 -0.06    0.00  0.00  0.00   
      5   H               -0.01  0.04  0.04   -0.15  0.74  0.65   -0.00  0.00  0.00   
      6   O               -0.00 -0.00 -0.00   -0.00 -0.00 -0.00    0.00 -0.00 -0.00   
      7   C                0.00  0.00  0.00    0.00  0.00  0.00   -0.00  0.00  0.00   
      8   C               -0.00  0.00  0.00   -0.00  0.00  0.00   -0.00 -0.00 -0.00   
      9   C                0.01 -0.07 -0.06   -0.00  0.00  0.00   -0.00 -0.00 -0.00   
     10   H               -0.13  0.74  0.65    0.01 -0.04 -0.04    0.00  0.00  0.00   
     11   C               -0.00  0.00  0.00    0.00 -0.00 -0.00    0.00  0.00 -0.00   
     12   H               -0.00 -0.00  0.00   -0.01 -0.01  0.01   -0.00 -0.00  0.00   
     13   H               -0.00  0.00 -0.00   -0.01  0.02 -0.01   -0.00  0.00  0.00   
     14   C               -0.00 -0.00  0.00    0.00  0.00  0.00   -0.00 -0.00 -0.00   
     15   O                0.00  0.00 -0.00   -0.00 -0.00  0.00   -0.05 -0.03 -0.02   
     16   H               -0.00 -0.00  0.00   -0.00  0.00 -0.00    0.86  0.42  0.28   
     17   CL               0.00  0.00  0.00   -0.00 -0.00 -0.00    0.00  0.00  0.00   
     18   CL              -0.00  0.00  0.00    0.00 -0.00 -0.00    0.00  0.00  0.00   
     19   CL               0.00  0.00  0.00   -0.00  0.00  0.00    0.00 -0.00 -0.00   

  ==> Thermochemistry Components <==

  Entropy, S
    Electronic S            0.000 [cal/(mol K)]        0.000 [J/(mol K)]       0.00000000 [mEh/K] (multiplicity = 1)
    Translational S        42.496 [cal/(mol K)]      177.803 [J/(mol K)]       0.06772143 [mEh/K] (mol. weight = 253.9304 [u], P = 101325.00 [Pa])
    Rotational S           33.414 [cal/(mol K)]      139.805 [J/(mol K)]       0.05324878 [mEh/K] (symmetry no. = 1)
    Vibrational S          43.381 [cal/(mol K)]      181.506 [J/(mol K)]       0.06913212 [mEh/K]
  Total S                 119.291 [cal/(mol K)]      499.114 [J/(mol K)]       0.19010233 [mEh/K]
  Correction S              0.000 [cal/(mol K)]        0.000 [J/(mol K)]       0.00000000 [mEh/K]

  Constant volume heat capacity, Cv
    Electronic Cv           0.000 [cal/(mol K)]        0.000 [J/(mol K)]       0.00000000 [mEh/K]
    Translational Cv        2.981 [cal/(mol K)]       12.472 [J/(mol K)]       0.00475022 [mEh/K]
    Rotational Cv           2.981 [cal/(mol K)]       12.472 [J/(mol K)]       0.00475022 [mEh/K]
    Vibrational Cv         38.192 [cal/(mol K)]      159.797 [J/(mol K)]       0.06086338 [mEh/K]
  Total Cv                 44.154 [cal/(mol K)]      184.740 [J/(mol K)]       0.07036382 [mEh/K]
  Correction Cv             0.000 [cal/(mol K)]        0.000 [J/(mol K)]       0.00000000 [mEh/K]

  Constant pressure heat capacity, Cp
    Electronic Cp           0.000 [cal/(mol K)]        0.000 [J/(mol K)]       0.00000000 [mEh/K]
    Translational Cp        4.968 [cal/(mol K)]       20.786 [J/(mol K)]       0.00791704 [mEh/K]
    Rotational Cp           2.981 [cal/(mol K)]       12.472 [J/(mol K)]       0.00475022 [mEh/K]
    Vibrational Cp         38.192 [cal/(mol K)]      159.797 [J/(mol K)]       0.06086338 [mEh/K]
  Total Cp                 46.141 [cal/(mol K)]      193.055 [J/(mol K)]       0.07353064 [mEh/K]
  Correction Cp             0.000 [cal/(mol K)]        0.000 [J/(mol K)]       0.00000000 [mEh/K]

  ==> Thermochemistry Energy Analysis <==

  Raw electronic energy, E0
  Total E0, Electronic energy at well bottom at 0 [K]                -1908.87881634 [Eh]

  Zero-point energy, ZPE_vib = Sum_i nu_i / 2
    Electronic ZPE          0.000 [kcal/mol]        0.000 [kJ/mol]       0.00000000 [Eh]
    Translational ZPE       0.000 [kcal/mol]        0.000 [kJ/mol]       0.00000000 [Eh]
    Rotational ZPE          0.000 [kcal/mol]        0.000 [kJ/mol]       0.00000000 [Eh]
    Vibrational ZPE        81.231 [kcal/mol]      339.872 [kJ/mol]       0.12945051 [Eh]       28411.100 [cm^-1]
  Correction ZPE           81.231 [kcal/mol]      339.872 [kJ/mol]       0.12945051 [Eh]       28411.100 [cm^-1]
  Total ZPE, Electronic energy at 0 [K]                              -1908.74936582 [Eh]

  Thermal Energy, E (includes ZPE)
    Electronic E            0.000 [kcal/mol]        0.000 [kJ/mol]       0.00000000 [Eh]
    Translational E         0.889 [kcal/mol]        3.718 [kJ/mol]       0.00141628 [Eh]
    Rotational E            0.889 [kcal/mol]        3.718 [kJ/mol]       0.00141628 [Eh]
    Vibrational E          87.406 [kcal/mol]      365.707 [kJ/mol]       0.13929027 [Eh]
  Correction E             89.183 [kcal/mol]      373.143 [kJ/mol]       0.14212283 [Eh]
  Total E, Electronic energy at  298.15 [K]                          -1908.73669351 [Eh]

  Enthalpy, H_trans = E_trans + k_B * T
    Electronic H            0.000 [kcal/mol]        0.000 [kJ/mol]       0.00000000 [Eh]
    Translational H         1.481 [kcal/mol]        6.197 [kJ/mol]       0.00236046 [Eh]
    Rotational H            0.889 [kcal/mol]        3.718 [kJ/mol]       0.00141628 [Eh]
    Vibrational H          87.406 [kcal/mol]      365.707 [kJ/mol]       0.13929027 [Eh]
  Correction H             89.776 [kcal/mol]      375.622 [kJ/mol]       0.14306701 [Eh]
  Total H, Enthalpy at  298.15 [K]                                   -1908.73574932 [Eh]

  Gibbs free energy, G = H - T * S
    Electronic G            0.000 [kcal/mol]        0.000 [kJ/mol]       0.00000000 [Eh]
    Translational G       -11.189 [kcal/mol]      -46.814 [kJ/mol]      -0.01783068 [Eh]
    Rotational G           -9.074 [kcal/mol]      -37.964 [kJ/mol]      -0.01445984 [Eh]
    Vibrational G          74.472 [kcal/mol]      311.590 [kJ/mol]       0.11867853 [Eh]
  Correction G             54.209 [kcal/mol]      226.812 [kJ/mol]       0.08638801 [Eh]
  Total G, Free enthalpy at  298.15 [K]                              -1908.79242833 [Eh]

    Psi4 stopped on: Thursday, 27 September 2018 01:24PM
    Psi4 wall time for execution: 0:18:48.25

*** Psi4 exiting successfully. Buy a developer a beer!
