
    -----------------------------------------------------------------------
          Psi4: An Open-Source Ab Initio Electronic Structure Package
                               Psi4 1.2.1 release

                         Git: Rev {HEAD} 406f4de 


    R. M. Parrish, L. A. Burns, D. G. A. Smith, A. C. Simmonett,
    A. E. DePrince III, E. G. Hohenstein, U. Bozkaya, A. Yu. Sokolov,
    R. Di Remigio, R. M. Richard, J. F. Gonthier, A. M. James,
    H. R. McAlexander, A. Kumar, M. Saitow, X. Wang, B. P. Pritchard,
    P. Verma, H. F. Schaefer III, K. Patkowski, R. A. King, E. F. Valeev,
    F. A. Evangelista, J. M. Turney, T. D. Crawford, and C. D. Sherrill,
    J. Chem. Theory Comput. 13(7) pp 3185--3197 (2017).
    (doi: 10.1021/acs.jctc.7b00174)


                         Additional Contributions by
    P. Kraus, H. Kruse, M. H. Lechner, M. C. Schieber, and R. A. Shaw

    -----------------------------------------------------------------------


    Psi4 started on: Thursday, 27 September 2018 12:45PM

    Process ID: 6452
    Host:       wr59
    PSIDATADIR: /usr/local/hpc1/software_molmod/psi4/psi4conda/share/psi4
    Memory:     500.0 MiB
    Threads:    16
    
  ==> Input File <==

--------------------------------------------------------------------------
memory 20 Gb

molecule conf10 {
0 1
C          1.24300       -0.55300       -0.65700
O          1.24700        1.78400       -0.14900
C          0.57800        0.61900       -0.32200
C         -0.80200        0.60500       -0.23200
H         -1.31100        1.51600        0.01000
O          3.84000        1.01600        0.28000
C         -1.51600       -0.55900       -0.45500
C         -0.84400       -1.72900       -0.77500
C          0.53600       -1.71800       -0.87700
H          1.05700       -2.61900       -1.13400
C          1.85900        2.01700        1.08900
H          1.28700        1.47900        1.83200
H          1.85100        3.06500        1.35800
C          3.29100        1.53000        1.19700
O          3.87000        1.75000        2.36500
H          4.76500        1.42600        2.31500
Cl        -1.67800       -3.21900       -1.06200
Cl         2.97000       -0.56900       -0.82600
Cl        -3.24100       -0.50300       -0.32300
}
set globals {
  reference rhf
  g_convergence gau_tight
  basis 6-31G(d)
}
optimize('scf')
--------------------------------------------------------------------------

  Memory set to  18.626 GiB by Python driver.
gradient() will perform analytic gradient computation.

*** tstart() called on wr59
*** at Thu Sep 27 12:45:29 2018

   => Loading Basis Set <=

    Name: 6-31G(D)
    Role: ORBITAL
    Keyword: BASIS
    atoms 1, 3-4, 7-9, 11, 14 entry C          line   111 file /usr/local/hpc1/software_molmod/psi4/psi4conda/share/psi4/basis/6-31g_d_.gbs 
    atoms 2, 6, 15            entry O          line   145 file /usr/local/hpc1/software_molmod/psi4/psi4conda/share/psi4/basis/6-31g_d_.gbs 
    atoms 5, 10, 12-13, 16    entry H          line    44 file /usr/local/hpc1/software_molmod/psi4/psi4conda/share/psi4/basis/6-31g_d_.gbs 
    atoms 17-19               entry CL         line   340 file /usr/local/hpc1/software_molmod/psi4/psi4conda/share/psi4/basis/6-31g_d_.gbs 


         ---------------------------------------------------------
                                   SCF
            by Justin Turney, Rob Parrish, Andy Simmonett
                             and Daniel Smith
                              RHF Reference
                       16 Threads,  19073 MiB Core
         ---------------------------------------------------------

  ==> Geometry <==

    Molecular point group: c1
    Full point group: C1

    Geometry (in Angstrom), charge = 0, multiplicity = 1:

       Center              X                  Y                   Z               Mass       
    ------------   -----------------  -----------------  -----------------  -----------------
         C            0.711511861298    -0.278021527686    -0.478362309951    12.000000000000
         O            0.715511861298     2.058978472314     0.029637690049    15.994914619560
         C            0.046511861298     0.893978472314    -0.143362309951    12.000000000000
         C           -1.333488138702     0.879978472314    -0.053362309951    12.000000000000
         H           -1.842488138702     1.790978472314     0.188637690049     1.007825032070
         O            3.308511861298     1.290978472314     0.458637690049    15.994914619560
         C           -2.047488138702    -0.284021527686    -0.276362309951    12.000000000000
         C           -1.375488138702    -1.454021527686    -0.596362309951    12.000000000000
         C            0.004511861298    -1.443021527686    -0.698362309951    12.000000000000
         H            0.525511861298    -2.344021527686    -0.955362309951     1.007825032070
         C            1.327511861298     2.291978472314     1.267637690049    12.000000000000
         H            0.755511861298     1.753978472314     2.010637690049     1.007825032070
         H            1.319511861298     3.339978472314     1.536637690049     1.007825032070
         C            2.759511861298     1.804978472314     1.375637690049    12.000000000000
         O            3.338511861298     2.024978472314     2.543637690049    15.994914619560
         H            4.233511861298     1.700978472314     2.493637690049     1.007825032070
         CL          -2.209488138702    -2.944021527686    -0.883362309951    34.968852682000
         CL           2.438511861298    -0.294021527686    -0.647362309951    34.968852682000
         CL          -3.772488138702    -0.228021527686    -0.144362309951    34.968852682000

  Running in c1 symmetry.

  Rotational constants: A =      0.03284  B =      0.00878  C =      0.00737 [cm^-1]
  Rotational constants: A =    984.37034  B =    263.08036  C =    220.82986 [MHz]
  Nuclear repulsion = 1210.328392970023060

  Charge       = 0
  Multiplicity = 1
  Electrons    = 128
  Nalpha       = 64
  Nbeta        = 64

  ==> Algorithm <==

  SCF Algorithm Type is DF.
  DIIS enabled.
  MOM disabled.
  Fractional occupation disabled.
  Guess Type is SAD.
  Energy threshold   = 1.00e-08
  Density threshold  = 1.00e-08
  Integral threshold = 0.00e+00

  ==> Primary Basis <==

  Basis Set: 6-31G(D)
    Blend: 6-31G(D)
    Number of shells: 100
    Number of basis function: 232
    Number of Cartesian functions: 232
    Spherical Harmonics?: false
    Max angular momentum: 2

   => Loading Basis Set <=

    Name: (6-31G(D) AUX)
    Role: JKFIT
    Keyword: DF_BASIS_SCF
    atoms 1, 3-4, 7-9, 11, 14 entry C          line   121 file /usr/local/hpc1/software_molmod/psi4/psi4conda/share/psi4/basis/cc-pvdz-jkfit.gbs 
    atoms 2, 6, 15            entry O          line   221 file /usr/local/hpc1/software_molmod/psi4/psi4conda/share/psi4/basis/cc-pvdz-jkfit.gbs 
    atoms 5, 10, 12-13, 16    entry H          line    51 file /usr/local/hpc1/software_molmod/psi4/psi4conda/share/psi4/basis/cc-pvdz-jkfit.gbs 
    atoms 17-19               entry CL         line   667 file /usr/local/hpc1/software_molmod/psi4/psi4conda/share/psi4/basis/cc-pvdz-jkfit.gbs 

  ==> Pre-Iterations <==

   -------------------------------------------------------
    Irrep   Nso     Nmo     Nalpha   Nbeta   Ndocc  Nsocc
   -------------------------------------------------------
     A        232     232       0       0       0       0
   -------------------------------------------------------
    Total     232     232      64      64      64       0
   -------------------------------------------------------

  ==> Integral Setup <==

  ==> DiskDFJK: Density-Fitted J/K Matrices <==

    J tasked:                  Yes
    K tasked:                  Yes
    wK tasked:                  No
    OpenMP threads:             16
    Integrals threads:          16
    Memory (MB):             14305
    Algorithm:                Core
    Integral Cache:           NONE
    Schwarz Cutoff:          1E-12
    Fitting Condition:       1E-12

   => Auxiliary Basis Set <=

  Basis Set: (6-31G(D) AUX)
    Blend: CC-PVDZ-JKFIT
    Number of shells: 417
    Number of basis function: 1406
    Number of Cartesian functions: 1406
    Spherical Harmonics?: false
    Max angular momentum: 3

  Minimum eigenvalue in the overlap matrix is 3.6706740540E-04.
  Using Symmetric Orthogonalization.

  SCF Guess: Superposition of Atomic Densities via on-the-fly atomic UHF.

  ==> Iterations <==

                           Total Energy        Delta E     RMS |[F,P]|

   @DF-RHF iter   0: -1916.54440921453693   -1.91654e+03   1.17199e-01 
   @DF-RHF iter   1: -1908.36501954137520    8.17939e+00   1.49463e-02 
   @DF-RHF iter   2: -1908.66324253994480   -2.98223e-01   9.04073e-03 DIIS
   @DF-RHF iter   3: -1908.78577856709467   -1.22536e-01   2.00207e-03 DIIS
   @DF-RHF iter   4: -1908.79795876289108   -1.21802e-02   7.66849e-04 DIIS
   @DF-RHF iter   5: -1908.79964380712818   -1.68504e-03   2.88273e-04 DIIS
   @DF-RHF iter   6: -1908.79996493190060   -3.21125e-04   8.42938e-05 DIIS
   @DF-RHF iter   7: -1908.80000559785094   -4.06660e-05   2.89422e-05 DIIS
   @DF-RHF iter   8: -1908.80001041245282   -4.81460e-06   1.42855e-05 DIIS
   @DF-RHF iter   9: -1908.80001172465518   -1.31220e-06   6.54892e-06 DIIS
   @DF-RHF iter  10: -1908.80001206565089   -3.40996e-07   2.60847e-06 DIIS
   @DF-RHF iter  11: -1908.80001211242325   -4.67724e-08   9.98126e-07 DIIS
   @DF-RHF iter  12: -1908.80001211712602   -4.70277e-09   4.01650e-07 DIIS
   @DF-RHF iter  13: -1908.80001211779745   -6.71434e-10   1.25329e-07 DIIS
   @DF-RHF iter  14: -1908.80001211790977   -1.12323e-10   4.97491e-08 DIIS
   @DF-RHF iter  15: -1908.80001211792433   -1.45519e-11   2.42043e-08 DIIS
   @DF-RHF iter  16: -1908.80001211792819   -3.86535e-12   1.07535e-08 DIIS
   @DF-RHF iter  17: -1908.80001211792819    0.00000e+00   4.60151e-09 DIIS

  ==> Post-Iterations <==

    Orbital Energies [Eh]
    ---------------------

    Doubly Occupied:                                                      

       1A   -104.842463     2A   -104.840932     3A   -104.807163  
       4A    -20.636904     5A    -20.616024     6A    -20.562965  
       7A    -11.397231     8A    -11.330093     9A    -11.329571  
      10A    -11.326643    11A    -11.326476    12A    -11.316240  
      13A    -11.272280    14A    -11.270874    15A    -10.575749  
      16A    -10.574188    17A    -10.543688    18A     -8.045195  
      19A     -8.043633    20A     -8.041677    21A     -8.041665  
      22A     -8.040112    23A     -8.040108    24A     -8.012437  
      25A     -8.009371    26A     -8.008671    27A     -1.501912  
      28A     -1.447754    29A     -1.393632    30A     -1.236690  
      31A     -1.172384    32A     -1.148803    33A     -1.101675  
      34A     -1.053407    35A     -1.014487    36A     -0.980316  
      37A     -0.880579    38A     -0.856430    39A     -0.819773  
      40A     -0.747392    41A     -0.740976    42A     -0.730597  
      43A     -0.712586    44A     -0.692036    45A     -0.666818  
      46A     -0.648185    47A     -0.639532    48A     -0.624753  
      49A     -0.594143    50A     -0.588050    51A     -0.569068  
      52A     -0.546829    53A     -0.542878    54A     -0.535982  
      55A     -0.511073    56A     -0.497311    57A     -0.491097  
      58A     -0.480962    59A     -0.467896    60A     -0.455767  
      61A     -0.439951    62A     -0.377654    63A     -0.357809  
      64A     -0.333881  

    Virtual:                                                              

      65A      0.102927    66A      0.111021    67A      0.156146  
      68A      0.178124    69A      0.211453    70A      0.219771  
      71A      0.234314    72A      0.246627    73A      0.285254  
      74A      0.294490    75A      0.312133    76A      0.318862  
      77A      0.336730    78A      0.391232    79A      0.411252  
      80A      0.432720    81A      0.447663    82A      0.464057  
      83A      0.477190    84A      0.495877    85A      0.518083  
      86A      0.548158    87A      0.555244    88A      0.594688  
      89A      0.602578    90A      0.605570    91A      0.619297  
      92A      0.629910    93A      0.640561    94A      0.656337  
      95A      0.656830    96A      0.668390    97A      0.681937  
      98A      0.700799    99A      0.728889   100A      0.738870  
     101A      0.753244   102A      0.756965   103A      0.779802  
     104A      0.789632   105A      0.798068   106A      0.821223  
     107A      0.828817   108A      0.844553   109A      0.850899  
     110A      0.890541   111A      0.898959   112A      0.908165  
     113A      0.927246   114A      0.942237   115A      0.958635  
     116A      0.976261   117A      0.991422   118A      1.010548  
     119A      1.043482   120A      1.051280   121A      1.059910  
     122A      1.070855   123A      1.080550   124A      1.100212  
     125A      1.112891   126A      1.116640   127A      1.123481  
     128A      1.132686   129A      1.135816   130A      1.142236  
     131A      1.146039   132A      1.170200   133A      1.191079  
     134A      1.195285   135A      1.205821   136A      1.211528  
     137A      1.226197   138A      1.238918   139A      1.265068  
     140A      1.282527   141A      1.288635   142A      1.297577  
     143A      1.321743   144A      1.334078   145A      1.344013  
     146A      1.382612   147A      1.406412   148A      1.426984  
     149A      1.443565   150A      1.450412   151A      1.482307  
     152A      1.504823   153A      1.518466   154A      1.562654  
     155A      1.595886   156A      1.619990   157A      1.651119  
     158A      1.662935   159A      1.674862   160A      1.687677  
     161A      1.724595   162A      1.754601   163A      1.779281  
     164A      1.791530   165A      1.802005   166A      1.833621  
     167A      1.848144   168A      1.857246   169A      1.899828  
     170A      1.957371   171A      1.998246   172A      2.034954  
     173A      2.058553   174A      2.077116   175A      2.084414  
     176A      2.117461   177A      2.141177   178A      2.160649  
     179A      2.215485   180A      2.227656   181A      2.229133  
     182A      2.245016   183A      2.276843   184A      2.337170  
     185A      2.343800   186A      2.345877   187A      2.391749  
     188A      2.395003   189A      2.423957   190A      2.431287  
     191A      2.440782   192A      2.508589   193A      2.529174  
     194A      2.576575   195A      2.579229   196A      2.600691  
     197A      2.634050   198A      2.734775   199A      2.778212  
     200A      2.793661   201A      2.834894   202A      2.854885  
     203A      2.898004   204A      2.970511   205A      2.995377  
     206A      3.023883   207A      3.075713   208A      3.079181  
     209A      3.082519   210A      3.119026   211A      3.158078  
     212A      3.206645   213A      3.300978   214A      3.389258  
     215A      3.432096   216A      3.487810   217A      3.508610  
     218A      3.718295   219A      4.236510   220A      4.431415  
     221A      4.454835   222A      4.484073   223A      4.531935  
     224A      4.606651   225A      4.641089   226A      4.710014  
     227A      4.735289   228A      4.768099   229A      4.835840  
     230A      4.888987   231A      4.937444   232A      5.151432  

    Final Occupation by Irrep:
              A 
    DOCC [    64 ]

  Energy converged.

  @DF-RHF Final Energy: -1908.80001211792819

   => Energetics <=

    Nuclear Repulsion Energy =           1210.3283929700230601
    One-Electron Energy =               -5039.3499660466968635
    Two-Electron Energy =                1920.2215609587458403
    Total Energy =                      -1908.8000121179281905



Properties will be evaluated at   0.000000,   0.000000,   0.000000 [a0]

Properties computed using the SCF density matrix

  Nuclear Dipole Moment: [e a0]
     X:     7.9586      Y:     9.0504      Z:     6.4924

  Electronic Dipole Moment: [e a0]
     X:    -7.4104      Y:    -8.3477      Z:    -5.2694

  Dipole Moment: [e a0]
     X:     0.5482      Y:     0.7027      Z:     1.2230     Total:     1.5132

  Dipole Moment: [D]
     X:     1.3933      Y:     1.7860      Z:     3.1085     Total:     3.8463


*** tstop() called on wr59 at Thu Sep 27 12:45:36 2018
Module time:
	user time   =      89.32 seconds =       1.49 minutes
	system time =       2.69 seconds =       0.04 minutes
	total time  =          7 seconds =       0.12 minutes
Total time:
	user time   =      89.32 seconds =       1.49 minutes
	system time =       2.69 seconds =       0.04 minutes
	total time  =          7 seconds =       0.12 minutes

*** tstart() called on wr59
*** at Thu Sep 27 12:45:36 2018


         ------------------------------------------------------------
                                   SCF GRAD                          
                          Rob Parrish, Justin Turney,                
                       Andy Simmonett, and Alex Sokolov              
         ------------------------------------------------------------

  ==> Geometry <==

    Molecular point group: c1
    Full point group: C1

    Geometry (in Angstrom), charge = 0, multiplicity = 1:

       Center              X                  Y                   Z               Mass       
    ------------   -----------------  -----------------  -----------------  -----------------
         C            0.711511861298    -0.278021527686    -0.478362309951    12.000000000000
         O            0.715511861298     2.058978472314     0.029637690049    15.994914619560
         C            0.046511861298     0.893978472314    -0.143362309951    12.000000000000
         C           -1.333488138702     0.879978472314    -0.053362309951    12.000000000000
         H           -1.842488138702     1.790978472314     0.188637690049     1.007825032070
         O            3.308511861298     1.290978472314     0.458637690049    15.994914619560
         C           -2.047488138702    -0.284021527686    -0.276362309951    12.000000000000
         C           -1.375488138702    -1.454021527686    -0.596362309951    12.000000000000
         C            0.004511861298    -1.443021527686    -0.698362309951    12.000000000000
         H            0.525511861298    -2.344021527686    -0.955362309951     1.007825032070
         C            1.327511861298     2.291978472314     1.267637690049    12.000000000000
         H            0.755511861298     1.753978472314     2.010637690049     1.007825032070
         H            1.319511861298     3.339978472314     1.536637690049     1.007825032070
         C            2.759511861298     1.804978472314     1.375637690049    12.000000000000
         O            3.338511861298     2.024978472314     2.543637690049    15.994914619560
         H            4.233511861298     1.700978472314     2.493637690049     1.007825032070
         CL          -2.209488138702    -2.944021527686    -0.883362309951    34.968852682000
         CL           2.438511861298    -0.294021527686    -0.647362309951    34.968852682000
         CL          -3.772488138702    -0.228021527686    -0.144362309951    34.968852682000

  Nuclear repulsion = 1210.328392970023060

  ==> Basis Set <==

  Basis Set: 6-31G(D)
    Blend: 6-31G(D)
    Number of shells: 100
    Number of basis function: 232
    Number of Cartesian functions: 232
    Spherical Harmonics?: false
    Max angular momentum: 2

  ==> DFJKGrad: Density-Fitted SCF Gradients <==

    Gradient:                    1
    J tasked:                  Yes
    K tasked:                  Yes
    wK tasked:                  No
    OpenMP threads:             16
    Integrals threads:          16
    Memory (MB):             14305
    Schwarz Cutoff:          0E+00
    Fitting Condition:       1E-12

   => Auxiliary Basis Set <=

  Basis Set: (6-31G(D) AUX)
    Blend: CC-PVDZ-JKFIT
    Number of shells: 417
    Number of basis function: 1406
    Number of Cartesian functions: 1406
    Spherical Harmonics?: false
    Max angular momentum: 3


  -Total Gradient:
     Atom            X                  Y                   Z
    ------   -----------------  -----------------  -----------------
       1       -0.010609033121     0.005841842849     0.005157511140
       2       -0.010984763282    -0.013384988820    -0.000843425281
       3       -0.001112092528     0.005548620836     0.002608154326
       4       -0.003115172074    -0.001603395841    -0.001607972883
       5        0.001375417219    -0.000688054754     0.000136720673
       6       -0.047984246240    -0.087077551428    -0.065406776286
       7        0.000345478245    -0.000010465077    -0.000069057323
       8       -0.000055181883    -0.000252651228    -0.000445984227
       9        0.004316101578     0.000081098199    -0.001054438128
      10       -0.000023748900    -0.000903995432     0.000153700978
      11        0.006552369206     0.012463400632    -0.021730829422
      12       -0.000068402145    -0.003907516517    -0.008783727744
      13        0.005209208136    -0.001504440220     0.008280412381
      14       -0.009794984028    -0.003776162390     0.030649937350
      15        0.008803741798    -0.000165726951    -0.008909620153
      16        0.000812792560    -0.000647457087     0.000150078228
      17        0.000555273466     0.000316966184     0.000081383592
      18        0.054930295591     0.089811332509     0.061743650417
      19        0.000846946385    -0.000140855448    -0.000109717580


*** tstop() called on wr59 at Thu Sep 27 12:45:41 2018
Module time:
	user time   =      57.57 seconds =       0.96 minutes
	system time =       2.53 seconds =       0.04 minutes
	total time  =          5 seconds =       0.08 minutes
Total time:
	user time   =     146.91 seconds =       2.45 minutes
	system time =       5.22 seconds =       0.09 minutes
	total time  =         12 seconds =       0.20 minutes

			-----------------------------------------
			 OPTKING 2.0: for geometry optimizations 
			  - R.A. King,  Bethel University        
			-----------------------------------------

	Internal coordinates to be generated automatically.
	Detected frag 1 with atoms:  1 2 3 4 5 6 7 8 9 10 11 12 13 14 15 16 17 18 19
	---Fragment 1 Bond Connectivity---
	 1 : 3 9 18
	 2 : 3 11
	 3 : 1 2 4
	 4 : 3 5 7
	 5 : 4
	 6 : 14 18
	 7 : 4 8 19
	 8 : 7 9 17
	 9 : 1 8 10
	 10 : 9
	 11 : 2 12 13 14
	 12 : 11
	 13 : 11
	 14 : 6 11 15
	 15 : 14 16
	 16 : 15
	 17 : 8
	 18 : 1 6
	 19 : 7

	---Fragment 1 Geometry and Gradient---
	 C           1.3445625582       -0.5253845464       -0.9039737581
	 O           1.3521214627        3.8909054262        0.0560071174
	 C           0.0878946798        1.6893744814       -0.2709155036
	 C          -2.5199273836        1.6629183155       -0.1008401516
	 H          -3.4817979852        3.3844588226        0.3564735725
	 O           6.2521813253        2.4395957561        0.8666996284
	 C          -3.8691918425       -0.5367229032       -0.5222490793
	 C          -2.5992958812       -2.7477024786       -1.1269614418
	 C           0.0085261822       -2.7269154912       -1.3197135073
	 H           0.9930734974       -4.4295587369       -1.8053731235
	 C           2.5086338560        4.3312116151        2.3954880699
	 H           1.4277105080        3.3145389557        3.7995545866
	 H           2.4935160469        6.3116446024        2.9038243997
	 C           5.2147216783        3.4109149884        2.5995784923
	 O           6.3088731092        3.8266547377        4.8067786155
	 H           8.0001779982        3.2143834706        4.7122923088
	 CL         -4.1753274760       -5.5633944166       -1.6693128419
	 CL          4.6081195896       -0.5556201645       -1.2233374746
	 CL         -7.1289694217       -0.4308982397       -0.2728052297
	            -0.0106090331        0.0058418428        0.0051575111
	            -0.0109847633       -0.0133849888       -0.0008434253
	            -0.0011120925        0.0055486208        0.0026081543
	            -0.0031151721       -0.0016033958       -0.0016079729
	             0.0013754172       -0.0006880548        0.0001367207
	            -0.0479842462       -0.0870775514       -0.0654067763
	             0.0003454782       -0.0000104651       -0.0000690573
	            -0.0000551819       -0.0002526512       -0.0004459842
	             0.0043161016        0.0000810982       -0.0010544381
	            -0.0000237489       -0.0009039954        0.0001537010
	             0.0065523692        0.0124634006       -0.0217308294
	            -0.0000684021       -0.0039075165       -0.0087837277
	             0.0052092081       -0.0015044402        0.0082804124
	            -0.0097949840       -0.0037761624        0.0306499374
	             0.0088037418       -0.0001657270       -0.0089096202
	             0.0008127926       -0.0006474571        0.0001500782
	             0.0005552735        0.0003169662        0.0000813836
	             0.0549302956        0.0898113325        0.0617436504
	             0.0008469464       -0.0001408554       -0.0001097176

	Previous optimization step data not found.  Starting new optimization.

	---Fragment 1 Intrafragment Coordinates---
	 - Coordinate -           - BOHR/RAD -       - ANG/DEG -
	 R(1,3)           =         2.623954	       1.388537
	 R(1,9)           =         2.608557	       1.380389
	 R(1,18)          =         3.279285	       1.735323
	 R(2,3)           =         2.559665	       1.354517
	 R(2,11)          =         2.646613	       1.400527
	 R(3,4)           =         2.613496	       1.383003
	 R(4,5)           =         2.024360	       1.071245
	 R(4,7)           =         2.614674	       1.383626
	 R(6,14)          =         2.241128	       1.185954
	 R(6,18)          =         4.005311	       2.119519
	 R(7,8)           =         2.620447	       1.386681
	 R(7,19)          =         3.271020	       1.730949
	 R(8,9)           =         2.615018	       1.383808
	 R(8,17)          =         3.272024	       1.731481
	 R(9,10)          =         2.025881	       1.072050
	 R(11,12)         =         2.042895	       1.081054
	 R(11,13)         =         2.044688	       1.082002
	 R(11,14)         =         2.865573	       1.516396
	 R(14,15)         =         2.498347	       1.322068
	 R(15,16)         =         1.801198	       0.953153
	 B(1,3,2)         =         2.117919	     121.347809
	 B(1,3,4)         =         2.077203	     119.014943
	 B(1,9,8)         =         2.101020	     120.379572
	 B(1,9,10)        =         2.092785	     119.907723
	 B(1,18,6)        =         1.929209	     110.535522
	 B(2,3,4)         =         2.086591	     119.552833
	 B(2,11,12)       =         1.868713	     107.069343
	 B(2,11,13)       =         1.958074	     112.189380
	 B(2,11,14)       =         2.006651	     114.972607
	 B(3,1,9)         =         2.100771	     120.365333
	 B(3,1,18)        =         2.103545	     120.524235
	 B(3,2,11)        =         2.062142	     118.152048
	 B(3,4,5)         =         2.071689	     118.699041
	 B(3,4,7)         =         2.109406	     120.860049
	 B(4,7,8)         =         2.090853	     119.797040
	 B(4,7,19)        =         2.065481	     118.343352
	 B(5,4,7)         =         2.102080	     120.440320
	 B(6,14,11)       =         2.119142	     121.417884
	 B(6,14,15)       =         2.156152	     123.538416
	 B(7,8,9)         =         2.086997	     119.576128
	 B(7,8,17)        =         2.130456	     122.066149
	 B(8,7,19)        =         2.126851	     121.859608
	 B(8,9,10)        =         2.089364	     119.711757
	 B(9,1,18)        =         2.078778	     119.105230
	 B(9,8,17)        =         2.065722	     118.357134
	 B(11,14,15)      =         2.007611	     115.027615
	 B(12,11,13)      =         1.883089	     107.893060
	 B(12,11,14)      =         1.865951	     106.911116
	 B(13,11,14)      =         1.875845	     107.477986
	 B(14,6,18)       =         2.138348	     122.518330
	 B(14,15,16)      =         1.884223	     107.958042
	 D(1,3,2,11)      =        -1.436199	     -82.288134
	 D(1,3,4,5)       =        -3.123179	    -178.944990
	 D(1,3,4,7)       =         0.013558	       0.776845
	 D(1,9,8,7)       =         0.004574	       0.262065
	 D(1,9,8,17)      =         3.141399	     179.988898
	 D(1,18,6,14)     =         0.395864	      22.681312
	 D(2,3,1,9)       =        -3.099560	    -177.591685
	 D(2,3,1,18)      =         0.027423	       1.571212
	 D(2,3,4,5)       =        -0.039097	      -2.240110
	 D(2,3,4,7)       =         3.097640	     177.481724
	 D(2,11,14,6)     =         0.024034	       1.377062
	 D(2,11,14,15)    =         3.141027	     179.967571
	 D(3,1,9,8)       =         0.007601	       0.435496
	 D(3,1,9,10)      =        -3.140189	    -179.919594
	 D(3,1,18,6)      =         0.413558	      23.695154
	 D(3,2,11,12)     =        -0.499026	     -28.592096
	 D(3,2,11,13)     =        -2.561773	    -146.778758
	 D(3,2,11,14)     =         1.570918	      90.006953
	 D(3,4,7,8)       =        -0.001562	      -0.089479
	 D(3,4,7,19)      =         3.140080	     179.913309
	 D(4,3,1,9)       =        -0.016548	      -0.948131
	 D(4,3,1,18)      =         3.110434	     178.214766
	 D(4,3,2,11)      =         1.764284	     101.086050
	 D(4,7,8,9)       =        -0.007580	      -0.434312
	 D(4,7,8,17)      =         3.138963	     179.849353
	 D(5,4,7,8)       =         3.135092	     179.627517
	 D(5,4,7,19)      =        -0.006452	      -0.369694
	 D(6,14,11,12)    =         2.095523	     120.064623
	 D(6,14,11,13)    =        -2.169708	    -124.315115
	 D(6,14,15,16)    =        -0.001779	      -0.101910
	 D(6,18,1,9)      =        -2.742462	    -157.131498
	 D(7,8,9,10)      =        -3.130833	    -179.383541
	 D(8,9,1,18)      =        -3.119588	    -178.739199
	 D(9,8,7,19)      =         3.133962	     179.562798
	 D(10,9,1,18)     =         0.015808	       0.905711
	 D(10,9,8,17)     =         0.005992	       0.343293
	 D(11,14,6,18)    =        -0.868481	     -49.760302
	 D(11,14,15,16)   =        -3.118184	    -178.658807
	 D(12,11,14,15)   =        -1.070670	     -61.344868
	 D(13,11,14,15)   =         0.947284	      54.275394
	 D(15,14,6,18)    =         2.299855	     131.771965
	 D(17,8,7,19)     =        -0.002680	      -0.153537

	Current energy   :     -1908.8000121179

	Generating empirical Hessian (Schlegel '84) for each fragment.
	Taking RFO optimization step.
	Going to follow RFO solution 1.
	Using RFO vector 1.

	Determining step-restricting scale parameter for RS-RFO.
	Maximum step size allowed    0.50000

	 Iter      |step|        alpha        rfo_root  
	------------------------------------------------
	    0     0.64587       1.00000           1
	    1     0.53960       1.73288           1
	    2     0.50429       2.10148           1
	    3     0.50006       2.15153           1
	    4     0.50000       2.15225           1
	------------------------------------------------
	Norm of target step-size    0.50000
	Projected energy change by RFO approximation:        -0.0492843088

	Back-transformation to cartesian coordinates...
	Could not converge backtransformation.
	Using first guess instead.

	--- Internal Coordinate Step in ANG or DEG, aJ/ANG or AJ/DEG ---
	 ---------------------------------------------------------------------------
	   Coordinate                Previous        Force       Change         New 
	   ----------                --------       ------       ------       ------
	    1 R(1,3)          =      1.388537     0.064376     0.009094     1.397631
	    2 R(1,9)          =      1.380389     0.020828     0.003437     1.383826
	    3 R(1,18)         =      1.735323    -0.064408    -0.008848     1.726475
	    4 R(2,3)          =      1.354517     0.084354     0.009672     1.364189
	    5 R(2,11)         =      1.400527     0.005206     0.001462     1.401989
	    6 R(3,4)          =      1.383003    -0.001877     0.000601     1.383604
	    7 R(4,5)          =      1.071245     0.009951     0.002021     1.073266
	    8 R(4,7)          =      1.383626    -0.003758     0.000383     1.384009
	    9 R(6,14)         =      1.185954    -0.032402    -0.000952     1.185002
	   10 R(6,18)         =      2.119519     0.952861     0.246107     2.365626
	   11 R(7,8)          =      1.386681    -0.009636    -0.000271     1.386410
	   12 R(7,19)         =      1.730949     0.007060     0.002233     1.733182
	   13 R(8,9)          =      1.383808     0.002265     0.000917     1.384725
	   14 R(8,17)         =      1.731481     0.004562     0.001788     1.733269
	   15 R(9,10)         =      1.072050    -0.005861     0.000210     1.072260
	   16 R(11,12)        =      1.081054     0.033418     0.004903     1.085956
	   17 R(11,13)        =      1.082002    -0.004638     0.001841     1.083843
	   18 R(11,14)        =      1.516396    -0.009806     0.001333     1.517729
	   19 R(14,15)        =      1.322068     0.030174     0.004806     1.326875
	   20 R(15,16)        =      0.953153    -0.008036     0.001863     0.955016
	   21 B(1,3,2)        =    121.347809     0.001266     2.835489   124.183298
	   22 B(1,3,4)        =    119.014943    -0.000134    -0.313374   118.701568
	   23 B(1,9,8)        =    120.379572     0.000156     0.347408   120.726980
	   24 B(1,9,10)       =    119.907723    -0.000113    -0.263831   119.643893
	   25 B(1,18,6)       =    110.535522    -0.001022    -2.631472   107.904051
	   26 B(2,3,4)        =    119.552833    -0.001126    -2.511497   117.041336
	   27 B(2,11,12)      =    107.069343     0.000611     1.995630   109.064973
	   28 B(2,11,13)      =    112.189380    -0.000589    -2.133960   110.055420
	   29 B(2,11,14)      =    114.972607    -0.000442    -0.986717   113.985891
	   30 B(3,1,9)        =    120.365333    -0.000221    -0.353692   120.011641
	   31 B(3,1,18)       =    120.524235    -0.000045    -0.044659   120.479577
	   32 B(3,2,11)       =    118.152048     0.000214     1.288536   119.440585
	   33 B(3,4,5)        =    118.699041    -0.000037    -0.055301   118.643740
	   34 B(3,4,7)        =    120.860049     0.000210     0.467041   121.327090
	   35 B(4,7,8)        =    119.797040    -0.000013    -0.090149   119.706891
	   36 B(4,7,19)       =    118.343352    -0.000009     0.007706   118.351058
	   37 B(5,4,7)        =    120.440320    -0.000173    -0.411276   120.029044
	   38 B(6,14,11)      =    121.417884     0.000703     1.276112   122.693997
	   39 B(6,14,15)      =    123.538416     0.000722     1.453206   124.991623
	   40 B(7,8,9)        =    119.576128     0.000001    -0.063383   119.512745
	   41 B(7,8,17)       =    122.066149    -0.000041    -0.037554   122.028596
	   42 B(8,7,19)       =    121.859608     0.000021     0.082350   121.941957
	   43 B(8,9,10)       =    119.711757    -0.000043    -0.084960   119.626797
	   44 B(9,1,18)       =    119.105230     0.000266     0.399301   119.504531
	   45 B(9,8,17)       =    118.357134     0.000040     0.100358   118.457492
	   46 B(11,14,15)     =    115.027615    -0.001418    -2.713280   112.314335
	   47 B(12,11,13)     =    107.893060    -0.000163    -0.311995   107.581065
	   48 B(12,11,14)     =    106.911116     0.000192     0.995854   107.906969
	   49 B(13,11,14)     =    107.477986     0.000429     0.559353   108.037339
	   50 B(14,6,18)      =    122.518330    -0.000521    -1.651487   120.866842
	   51 B(14,15,16)     =    107.958042    -0.000012    -0.011426   107.946615
	   52 D(1,3,2,11)     =    -82.288134    -0.000110    -2.286006   -84.574140
	   53 D(1,3,4,5)      =   -178.944990     0.000000     0.076917  -178.868072
	   54 D(1,3,4,7)      =      0.776845     0.000014     0.226018     1.002862
	   55 D(1,9,8,7)      =      0.262065    -0.000001     0.000616     0.262680
	   56 D(1,9,8,17)     =    179.988898    -0.000008    -0.111240   179.877658
	   57 D(1,18,6,14)    =     22.681312    -0.000016    -0.214934    22.466378
	   58 D(2,3,1,9)      =   -177.591685    -0.000045    -0.514260  -178.105945
	   59 D(2,3,1,18)     =      1.571212    -0.000048    -0.430909     1.140303
	   60 D(2,3,4,5)      =     -2.240110     0.000039     0.379956    -1.860154
	   61 D(2,3,4,7)      =    177.481724     0.000052     0.529056   178.010780
	   62 D(2,11,14,6)    =      1.377062    -0.000103    -1.794070    -0.417008
	   63 D(2,11,14,15)   =    179.967571    -0.000033    -0.310470   179.657101
	   64 D(3,1,9,8)      =      0.435496     0.000020     0.274906     0.710403
	   65 D(3,1,9,10)     =   -179.919594     0.000004     0.072606  -179.846987
	   66 D(3,1,18,6)     =     23.695154    -0.000119    -1.729234    21.965920
	   67 D(3,2,11,12)    =    -28.592096     0.000006     0.901412   -27.690684
	   68 D(3,2,11,13)    =   -146.778758     0.000040     1.288492  -145.490265
	   69 D(3,2,11,14)    =     90.006953     0.000098     2.954977    92.961930
	   70 D(3,4,7,8)      =     -0.089479     0.000005     0.045630    -0.043849
	   71 D(3,4,7,19)     =    179.913309    -0.000005    -0.066643   179.846667
	   72 D(4,3,1,9)      =     -0.948131    -0.000026    -0.379567    -1.327698
	   73 D(4,3,1,18)     =    178.214766    -0.000028    -0.296216   177.918550
	   74 D(4,3,2,11)     =    101.086050    -0.000138    -2.487485    98.598565
	   75 D(4,7,8,9)      =     -0.434312    -0.000011    -0.162824    -0.597136
	   76 D(4,7,8,17)     =    179.849353    -0.000004    -0.047212   179.802141
	   77 D(5,4,7,8)      =    179.627517     0.000018     0.197803   179.825320
	   78 D(5,4,7,19)     =     -0.369694     0.000009     0.085530    -0.284164
	   79 D(6,14,11,12)   =    120.064623     0.000043     0.815953   120.880576
	   80 D(6,14,11,13)   =   -124.315115     0.000070     1.239706  -123.075409
	   81 D(6,14,15,16)   =     -0.101910     0.000041     0.878735     0.776826
	   82 D(6,18,1,9)     =   -157.131498    -0.000122    -1.652530  -158.784027
	   83 D(7,8,9,10)     =   -179.383541     0.000014     0.203516  -179.180025
	   84 D(8,9,1,18)     =   -178.739199     0.000023     0.195986  -178.543213
	   85 D(9,8,7,19)     =    179.562798    -0.000001    -0.046390   179.516408
	   86 D(10,9,1,18)    =      0.905711     0.000007    -0.006314     0.899397
	   87 D(10,9,8,17)    =      0.343293     0.000008     0.091660     0.434953
	   88 D(11,14,6,18)   =    -49.760302     0.000120     2.677089   -47.083214
	   89 D(11,14,15,16)  =   -178.658807    -0.000030    -0.640497  -179.299304
	   90 D(12,11,14,15)  =    -61.344868     0.000113     2.299553   -59.045315
	   91 D(13,11,14,15)  =     54.275394     0.000140     2.723306    56.998700
	   92 D(15,14,6,18)   =    131.771965     0.000051     1.061134   132.833099
	   93 D(17,8,7,19)    =     -0.153537     0.000006     0.069222    -0.084315
	 ---------------------------------------------------------------------------
	Successfully symmetrized geometry.

  ==> Convergence Check <==

  Measures of convergence in internal coordinates in au.
  Criteria marked as inactive (o), active & met (*), and active & unmet ( ).
  --------------------------------------------------------------------------------------------- ~
   Step     Total Energy     Delta E     MAX Force     RMS Force      MAX Disp      RMS Disp    ~
  --------------------------------------------------------------------------------------------- ~
    Convergence Criteria             o    1.50e-05 *    1.00e-05 *    6.00e-05 *    4.00e-05 *  ~
  --------------------------------------------------------------------------------------------- ~
      1   -1908.80001212   -1.91e+03 o    1.16e-01      1.30e-02      4.65e-01      5.18e-02    ~
  ---------------------------------------------------------------------------------------------

	Writing optimization data to binary file.
	Structure for next step:
	Cartesian Geometry (in Angstrom)
	    C     0.7177125453  -0.3546407697  -0.5293276550
	    O     0.7477174257   2.0166119417   0.0478156518
	    C     0.0918754471   0.8378311049  -0.1555496501
	    C    -1.2869089716   0.8573598954  -0.0418330683
	    H    -1.7679494585   1.7782646557   0.2273046066
	    O     3.3771518169   1.3726442956   0.4865126931
	    C    -2.0439099150  -0.2785852196  -0.2699990885
	    C    -1.4158607979  -1.4637392308  -0.6208512984
	    C    -0.0375615190  -1.4928176520  -0.7508854060
	    H     0.4489246198  -2.4051402454  -1.0350344871
	    C     1.3318561001   2.2737500656   1.2961090162
	    H     0.7852577753   1.7315443589   2.0619709888
	    H     1.2610989740   3.3298844471   1.5291091297
	    C     2.7915533755   1.8686834923   1.3894240013
	    O     3.3125928923   2.1330785780   2.5807300316
	    H     4.2292280413   1.8654080559   2.5669862851
	   CL    -2.3041847629  -2.9226414645  -0.9153104013
	   CL     2.4305027491  -0.4169805431  -0.7371240854
	   CL    -3.7653709728  -0.1679247921  -0.1019311531
			--------------------------
			 OPTKING Finished Execution 
			--------------------------

    Structure for next step:
    Molecular point group: c1
    Full point group: C1

    Geometry (in Angstrom), charge = 0, multiplicity = 1:

    C            0.723665024487    -0.350693804542    -0.520168392061
    O            0.753669904960     2.020558906859     0.056974914730
    C            0.097827926281     0.841778070047    -0.146390387206
    C           -1.280956492343     0.861306860554    -0.032673805397
    H           -1.761996979316     1.782211620807     0.236463869526
    O            3.383104296153     1.376591260692     0.495671956064
    C           -2.037957435806    -0.274638254488    -0.260839825514
    C           -1.409908318690    -1.459792265641    -0.611692035490
    C           -0.031609039786    -1.488870686906    -0.741726143081
    H            0.454877099046    -2.401193280279    -1.025875224169
    C            1.337808579276     2.277697030700     1.305268279130
    H            0.791210254470     1.735491324022     2.071130251759
    H            1.267051453167     3.333831412214     1.538268392612
    C            2.797505854735     1.872630457370     1.398583264187
    O            3.318545371471     2.137025543120     2.589889294515
    H            4.235180520556     1.869355021005     2.576145548055
    CL          -2.298232283653    -2.918694499412    -0.906151138397
    CL           2.436455228338    -0.413033577957    -0.727964822428
    CL          -3.759418493610    -0.163977826996    -0.092771890122

gradient() will perform analytic gradient computation.

*** tstart() called on wr59
*** at Thu Sep 27 12:45:41 2018

   => Loading Basis Set <=

    Name: 6-31G(D)
    Role: ORBITAL
    Keyword: BASIS
    atoms 1, 3-4, 7-9, 11, 14 entry C          line   111 file /usr/local/hpc1/software_molmod/psi4/psi4conda/share/psi4/basis/6-31g_d_.gbs 
    atoms 2, 6, 15            entry O          line   145 file /usr/local/hpc1/software_molmod/psi4/psi4conda/share/psi4/basis/6-31g_d_.gbs 
    atoms 5, 10, 12-13, 16    entry H          line    44 file /usr/local/hpc1/software_molmod/psi4/psi4conda/share/psi4/basis/6-31g_d_.gbs 
    atoms 17-19               entry CL         line   340 file /usr/local/hpc1/software_molmod/psi4/psi4conda/share/psi4/basis/6-31g_d_.gbs 


         ---------------------------------------------------------
                                   SCF
            by Justin Turney, Rob Parrish, Andy Simmonett
                             and Daniel Smith
                              RHF Reference
                       16 Threads,  19073 MiB Core
         ---------------------------------------------------------

  ==> Geometry <==

    Molecular point group: c1
    Full point group: C1

    Geometry (in Angstrom), charge = 0, multiplicity = 1:

       Center              X                  Y                   Z               Mass       
    ------------   -----------------  -----------------  -----------------  -----------------
         C            0.723665024487    -0.350693804542    -0.520168392061    12.000000000000
         O            0.753669904960     2.020558906859     0.056974914730    15.994914619560
         C            0.097827926281     0.841778070047    -0.146390387206    12.000000000000
         C           -1.280956492343     0.861306860554    -0.032673805397    12.000000000000
         H           -1.761996979316     1.782211620807     0.236463869526     1.007825032070
         O            3.383104296153     1.376591260692     0.495671956064    15.994914619560
         C           -2.037957435806    -0.274638254488    -0.260839825514    12.000000000000
         C           -1.409908318690    -1.459792265641    -0.611692035490    12.000000000000
         C           -0.031609039786    -1.488870686906    -0.741726143081    12.000000000000
         H            0.454877099046    -2.401193280279    -1.025875224169     1.007825032070
         C            1.337808579276     2.277697030700     1.305268279130    12.000000000000
         H            0.791210254470     1.735491324022     2.071130251759     1.007825032070
         H            1.267051453167     3.333831412214     1.538268392612     1.007825032070
         C            2.797505854735     1.872630457370     1.398583264187    12.000000000000
         O            3.318545371471     2.137025543120     2.589889294515    15.994914619560
         H            4.235180520556     1.869355021005     2.576145548055     1.007825032070
         CL          -2.298232283653    -2.918694499412    -0.906151138397    34.968852682000
         CL           2.436455228338    -0.413033577957    -0.727964822428    34.968852682000
         CL          -3.759418493610    -0.163977826996    -0.092771890122    34.968852682000

  Running in c1 symmetry.

  Rotational constants: A =      0.03180  B =      0.00868  C =      0.00723 [cm^-1]
  Rotational constants: A =    953.26935  B =    260.10038  C =    216.66547 [MHz]
  Nuclear repulsion = 1199.452384823842522

  Charge       = 0
  Multiplicity = 1
  Electrons    = 128
  Nalpha       = 64
  Nbeta        = 64

  ==> Algorithm <==

  SCF Algorithm Type is DF.
  DIIS enabled.
  MOM disabled.
  Fractional occupation disabled.
  Guess Type is READ.
  Energy threshold   = 1.00e-08
  Density threshold  = 1.00e-08
  Integral threshold = 0.00e+00

  ==> Primary Basis <==

  Basis Set: 6-31G(D)
    Blend: 6-31G(D)
    Number of shells: 100
    Number of basis function: 232
    Number of Cartesian functions: 232
    Spherical Harmonics?: false
    Max angular momentum: 2

   => Loading Basis Set <=

    Name: (6-31G(D) AUX)
    Role: JKFIT
    Keyword: DF_BASIS_SCF
    atoms 1, 3-4, 7-9, 11, 14 entry C          line   121 file /usr/local/hpc1/software_molmod/psi4/psi4conda/share/psi4/basis/cc-pvdz-jkfit.gbs 
    atoms 2, 6, 15            entry O          line   221 file /usr/local/hpc1/software_molmod/psi4/psi4conda/share/psi4/basis/cc-pvdz-jkfit.gbs 
    atoms 5, 10, 12-13, 16    entry H          line    51 file /usr/local/hpc1/software_molmod/psi4/psi4conda/share/psi4/basis/cc-pvdz-jkfit.gbs 
    atoms 17-19               entry CL         line   667 file /usr/local/hpc1/software_molmod/psi4/psi4conda/share/psi4/basis/cc-pvdz-jkfit.gbs 

  Reading orbitals from file 180, no projection.

  ==> Pre-Iterations <==

   -------------------------------------------------------
    Irrep   Nso     Nmo     Nalpha   Nbeta   Ndocc  Nsocc
   -------------------------------------------------------
     A        232     232       0       0       0       0
   -------------------------------------------------------
    Total     232     232      64      64      64       0
   -------------------------------------------------------

  ==> Integral Setup <==

  ==> DiskDFJK: Density-Fitted J/K Matrices <==

    J tasked:                  Yes
    K tasked:                  Yes
    wK tasked:                  No
    OpenMP threads:             16
    Integrals threads:          16
    Memory (MB):             14305
    Algorithm:                Core
    Integral Cache:           NONE
    Schwarz Cutoff:          1E-12
    Fitting Condition:       1E-12

   => Auxiliary Basis Set <=

  Basis Set: (6-31G(D) AUX)
    Blend: CC-PVDZ-JKFIT
    Number of shells: 417
    Number of basis function: 1406
    Number of Cartesian functions: 1406
    Spherical Harmonics?: false
    Max angular momentum: 3

  Minimum eigenvalue in the overlap matrix is 3.7228062952E-04.
  Using Symmetric Orthogonalization.

  SCF Guess: Orbitals guess was supplied from a previous computation.

  ==> Iterations <==

                           Total Energy        Delta E     RMS |[F,P]|

   @DF-RHF iter   0: -1908.87090859962609   -1.90887e+03   6.32229e-03 
   @DF-RHF iter   1: -1908.83819961520339    3.27090e-02   1.47942e-03 
   @DF-RHF iter   2: -1908.84104673811566   -2.84712e-03   1.03677e-03 DIIS
   @DF-RHF iter   3: -1908.84246567403670   -1.41894e-03   1.54419e-04 DIIS
   @DF-RHF iter   4: -1908.84254258799569   -7.69140e-05   6.66599e-05 DIIS
   @DF-RHF iter   5: -1908.84256206833538   -1.94803e-05   2.18054e-05 DIIS
   @DF-RHF iter   6: -1908.84256516769551   -3.09936e-06   1.13071e-05 DIIS
   @DF-RHF iter   7: -1908.84256592751376   -7.59818e-07   4.68798e-06 DIIS
   @DF-RHF iter   8: -1908.84256607722000   -1.49706e-07   1.96476e-06 DIIS
   @DF-RHF iter   9: -1908.84256609934687   -2.21269e-08   7.86256e-07 DIIS
   @DF-RHF iter  10: -1908.84256610324474   -3.89787e-09   2.47412e-07 DIIS
   @DF-RHF iter  11: -1908.84256610356579   -3.21052e-10   9.60885e-08 DIIS
   @DF-RHF iter  12: -1908.84256610360580   -4.00178e-11   3.41342e-08 DIIS
   @DF-RHF iter  13: -1908.84256610361354   -7.73070e-12   1.18899e-08 DIIS
   @DF-RHF iter  14: -1908.84256610361240    1.13687e-12   4.52899e-09 DIIS

  ==> Post-Iterations <==

    Orbital Energies [Eh]
    ---------------------

    Doubly Occupied:                                                      

       1A   -104.843044     2A   -104.842081     3A   -104.817945  
       4A    -20.637246     5A    -20.614033     6A    -20.565921  
       7A    -11.398842     8A    -11.332875     9A    -11.330346  
      10A    -11.328333    11A    -11.324894    12A    -11.321056  
      13A    -11.275195    14A    -11.270700    15A    -10.576277  
      16A    -10.575282    17A    -10.552708    18A     -8.045718  
      19A     -8.044726    20A     -8.042205    21A     -8.042192  
      22A     -8.041203    23A     -8.041200    24A     -8.021866  
      25A     -8.018408    26A     -8.018216    27A     -1.497328  
      28A     -1.441088    29A     -1.389964    30A     -1.236995  
      31A     -1.175000    32A     -1.149029    33A     -1.103208  
      34A     -1.052061    35A     -1.014122    36A     -0.978488  
      37A     -0.879208    38A     -0.856281    39A     -0.815492  
      40A     -0.743136    41A     -0.730915    42A     -0.727945  
      43A     -0.708964    44A     -0.689546    45A     -0.666612  
      46A     -0.646480    47A     -0.637766    48A     -0.620379  
      49A     -0.597412    50A     -0.588290    51A     -0.568995  
      52A     -0.550272    53A     -0.541066    54A     -0.529087  
      55A     -0.508252    56A     -0.497375    57A     -0.492940  
      58A     -0.481389    59A     -0.464622    60A     -0.456486  
      61A     -0.444642    62A     -0.408119    63A     -0.359772  
      64A     -0.337171  

    Virtual:                                                              

      65A      0.102231    66A      0.109221    67A      0.155068  
      68A      0.178885    69A      0.211730    70A      0.218974  
      71A      0.234407    72A      0.244824    73A      0.284668  
      74A      0.296534    75A      0.310069    76A      0.317074  
      77A      0.334443    78A      0.390945    79A      0.409651  
      80A      0.433653    81A      0.444125    82A      0.459354  
      83A      0.478759    84A      0.491978    85A      0.515843  
      86A      0.546984    87A      0.550351    88A      0.588209  
      89A      0.601317    90A      0.602049    91A      0.617581  
      92A      0.625008    93A      0.637761    94A      0.653885  
      95A      0.655829    96A      0.665906    97A      0.679736  
      98A      0.701022    99A      0.725694   100A      0.735834  
     101A      0.754463   102A      0.767835   103A      0.779849  
     104A      0.788973   105A      0.798967   106A      0.820530  
     107A      0.830231   108A      0.841242   109A      0.849037  
     110A      0.887180   111A      0.899935   112A      0.906921  
     113A      0.927605   114A      0.943254   115A      0.958391  
     116A      0.973681   117A      0.992320   118A      1.011530  
     119A      1.043724   120A      1.049818   121A      1.055997  
     122A      1.068609   123A      1.076345   124A      1.089939  
     125A      1.109462   126A      1.117000   127A      1.131623  
     128A      1.133342   129A      1.134811   130A      1.138675  
     131A      1.145661   132A      1.153329   133A      1.180283  
     134A      1.191371   135A      1.198650   136A      1.211835  
     137A      1.219103   138A      1.230968   139A      1.262223  
     140A      1.267403   141A      1.279834   142A      1.296608  
     143A      1.315806   144A      1.336643   145A      1.343542  
     146A      1.368609   147A      1.398928   148A      1.423601  
     149A      1.441006   150A      1.447394   151A      1.473028  
     152A      1.500089   153A      1.526547   154A      1.559083  
     155A      1.598421   156A      1.636347   157A      1.654210  
     158A      1.661752   159A      1.673576   160A      1.685631  
     161A      1.705349   162A      1.747054   163A      1.756454  
     164A      1.789652   165A      1.800146   166A      1.830917  
     167A      1.837914   168A      1.853926   169A      1.892240  
     170A      1.955049   171A      2.001637   172A      2.024177  
     173A      2.050243   174A      2.071888   175A      2.075518  
     176A      2.104236   177A      2.123432   178A      2.139902  
     179A      2.199131   180A      2.213542   181A      2.219918  
     182A      2.237855   183A      2.276548   184A      2.336637  
     185A      2.346616   186A      2.357190   187A      2.384022  
     188A      2.385102   189A      2.419297   190A      2.428207  
     191A      2.439831   192A      2.499271   193A      2.518304  
     194A      2.573129   195A      2.575747   196A      2.600957  
     197A      2.631644   198A      2.741423   199A      2.769782  
     200A      2.776060   201A      2.826822   202A      2.845687  
     203A      2.892631   204A      2.963026   205A      2.996465  
     206A      3.017401   207A      3.073054   208A      3.075486  
     209A      3.085755   210A      3.115578   211A      3.153648  
     212A      3.201268   213A      3.299796   214A      3.381874  
     215A      3.426511   216A      3.487641   217A      3.501888  
     218A      3.709944   219A      4.225453   220A      4.430897  
     221A      4.454079   222A      4.481514   223A      4.524344  
     224A      4.602477   225A      4.639325   226A      4.706783  
     227A      4.736474   228A      4.762871   229A      4.827553  
     230A      4.866425   231A      4.925214   232A      5.145223  

    Final Occupation by Irrep:
              A 
    DOCC [    64 ]

  Energy converged.

  @DF-RHF Final Energy: -1908.84256610361240

   => Energetics <=

    Nuclear Repulsion Energy =           1199.4523848238425217
    One-Electron Energy =               -5017.5730943459284390
    Two-Electron Energy =                1909.2781434184737464
    Total Energy =                      -1908.8425661036123984



Properties will be evaluated at   0.000000,   0.000000,   0.000000 [a0]

Properties computed using the SCF density matrix

  Nuclear Dipole Moment: [e a0]
     X:     8.0253      Y:     9.1512      Z:     6.6547

  Electronic Dipole Moment: [e a0]
     X:    -7.5229      Y:    -8.5083      Z:    -5.4527

  Dipole Moment: [e a0]
     X:     0.5024      Y:     0.6429      Z:     1.2019     Total:     1.4527

  Dipole Moment: [D]
     X:     1.2769      Y:     1.6340      Z:     3.0550     Total:     3.6924


*** tstop() called on wr59 at Thu Sep 27 12:45:46 2018
Module time:
	user time   =      74.72 seconds =       1.25 minutes
	system time =       1.81 seconds =       0.03 minutes
	total time  =          5 seconds =       0.08 minutes
Total time:
	user time   =     225.59 seconds =       3.76 minutes
	system time =       7.18 seconds =       0.12 minutes
	total time  =         17 seconds =       0.28 minutes

*** tstart() called on wr59
*** at Thu Sep 27 12:45:46 2018


         ------------------------------------------------------------
                                   SCF GRAD                          
                          Rob Parrish, Justin Turney,                
                       Andy Simmonett, and Alex Sokolov              
         ------------------------------------------------------------

  ==> Geometry <==

    Molecular point group: c1
    Full point group: C1

    Geometry (in Angstrom), charge = 0, multiplicity = 1:

       Center              X                  Y                   Z               Mass       
    ------------   -----------------  -----------------  -----------------  -----------------
         C            0.723665024487    -0.350693804542    -0.520168392061    12.000000000000
         O            0.753669904960     2.020558906859     0.056974914730    15.994914619560
         C            0.097827926281     0.841778070047    -0.146390387206    12.000000000000
         C           -1.280956492343     0.861306860554    -0.032673805397    12.000000000000
         H           -1.761996979316     1.782211620807     0.236463869526     1.007825032070
         O            3.383104296153     1.376591260692     0.495671956064    15.994914619560
         C           -2.037957435806    -0.274638254488    -0.260839825514    12.000000000000
         C           -1.409908318690    -1.459792265641    -0.611692035490    12.000000000000
         C           -0.031609039786    -1.488870686906    -0.741726143081    12.000000000000
         H            0.454877099046    -2.401193280279    -1.025875224169     1.007825032070
         C            1.337808579276     2.277697030700     1.305268279130    12.000000000000
         H            0.791210254470     1.735491324022     2.071130251759     1.007825032070
         H            1.267051453167     3.333831412214     1.538268392612     1.007825032070
         C            2.797505854735     1.872630457370     1.398583264187    12.000000000000
         O            3.318545371471     2.137025543120     2.589889294515    15.994914619560
         H            4.235180520556     1.869355021005     2.576145548055     1.007825032070
         CL          -2.298232283653    -2.918694499412    -0.906151138397    34.968852682000
         CL           2.436455228338    -0.413033577957    -0.727964822428    34.968852682000
         CL          -3.759418493610    -0.163977826996    -0.092771890122    34.968852682000

  Nuclear repulsion = 1199.452384823842522

  ==> Basis Set <==

  Basis Set: 6-31G(D)
    Blend: 6-31G(D)
    Number of shells: 100
    Number of basis function: 232
    Number of Cartesian functions: 232
    Spherical Harmonics?: false
    Max angular momentum: 2

  ==> DFJKGrad: Density-Fitted SCF Gradients <==

    Gradient:                    1
    J tasked:                  Yes
    K tasked:                  Yes
    wK tasked:                  No
    OpenMP threads:             16
    Integrals threads:          16
    Memory (MB):             14305
    Schwarz Cutoff:          0E+00
    Fitting Condition:       1E-12

   => Auxiliary Basis Set <=

  Basis Set: (6-31G(D) AUX)
    Blend: CC-PVDZ-JKFIT
    Number of shells: 417
    Number of basis function: 1406
    Number of Cartesian functions: 1406
    Spherical Harmonics?: false
    Max angular momentum: 3


  -Total Gradient:
     Atom            X                  Y                   Z
    ------   -----------------  -----------------  -----------------
       1       -0.002328356569    -0.005769194691    -0.000221522421
       2       -0.009701811348     0.000073039688     0.002173143673
       3        0.001630343119     0.001144624161    -0.001315995926
       4       -0.000573547237     0.000564867045    -0.001347801544
       5       -0.000003697561     0.000484326904     0.000552823660
       6       -0.023454201691    -0.043155224102    -0.037329814489
       7        0.000647421435     0.000118000323    -0.000210789298
       8       -0.000088019741    -0.000406752706    -0.000113194574
       9        0.001298785930    -0.002476225340    -0.000521224799
      10       -0.000094811919    -0.000741121998    -0.000058566313
      11        0.006257290827     0.008968975901    -0.012760902450
      12       -0.001534611291    -0.002967161806    -0.002996312943
      13        0.002604712486     0.000795730153     0.005602944085
      14        0.001193217392     0.000894297991     0.020805201876
      15        0.000299674380     0.001794712835     0.000408825565
      16        0.002188463366    -0.000995944003    -0.000856601804
      17       -0.000422910527    -0.000586176616    -0.000132686640
      18        0.022600920901     0.042189230672     0.028257718178
      19       -0.000518861858     0.000069995722     0.000064756198


*** tstop() called on wr59 at Thu Sep 27 12:45:50 2018
Module time:
	user time   =      55.12 seconds =       0.92 minutes
	system time =       1.35 seconds =       0.02 minutes
	total time  =          4 seconds =       0.07 minutes
Total time:
	user time   =     280.76 seconds =       4.68 minutes
	system time =       8.53 seconds =       0.14 minutes
	total time  =         21 seconds =       0.35 minutes

			-----------------------------------------
			 OPTKING 2.0: for geometry optimizations 
			  - R.A. King,  Bethel University        
			-----------------------------------------

	Previous internal coordinate definitions found.
	---Fragment 1 Geometry and Gradient---
	 C           1.3675287082       -0.6627152471       -0.9829758040
	 O           1.4242297150        3.8183029693        0.1076669853
	 C           0.1848679888        1.5907300171       -0.2766377403
	 C          -2.4206569587        1.6276340828       -0.0617445439
	 H          -3.3296917379        3.3678918742        0.4468519537
	 O           6.3931405987        2.6013804796        0.9366842487
	 C          -3.8511814242       -0.5189910866       -0.4929158348
	 C          -2.6643405948       -2.7586075930       -1.1559304247
	 C          -0.0597324285       -2.8135578455       -1.4016592760
	 H           0.8595931413       -4.5375976919       -1.9386232202
	 C           2.5280918331        4.3042236017        2.4665995775
	 H           1.4951706945        3.2796033084        3.9138689614
	 H           2.3943802428        6.3000283423        2.9069059809
	 C           5.2865199206        3.5387587125        2.6429393434
	 O           6.2711419116        4.0383930155        4.8941814811
	 H           8.0033313072        3.5325690348        4.8682095643
	 CL         -4.3430296059       -5.5155332694       -1.7123774866
	 CL          4.6042331166       -0.7805203460       -1.3756541488
	 CL         -7.1042713718       -0.3098731849       -0.1753134652
	            -0.0023283566       -0.0057691947       -0.0002215224
	            -0.0097018113        0.0000730397        0.0021731437
	             0.0016303431        0.0011446242       -0.0013159959
	            -0.0005735472        0.0005648670       -0.0013478015
	            -0.0000036976        0.0004843269        0.0005528237
	            -0.0234542017       -0.0431552241       -0.0373298145
	             0.0006474214        0.0001180003       -0.0002107893
	            -0.0000880197       -0.0004067527       -0.0001131946
	             0.0012987859       -0.0024762253       -0.0005212248
	            -0.0000948119       -0.0007411220       -0.0000585663
	             0.0062572908        0.0089689759       -0.0127609025
	            -0.0015346113       -0.0029671618       -0.0029963129
	             0.0026047125        0.0007957302        0.0056029441
	             0.0011932174        0.0008942980        0.0208052019
	             0.0002996744        0.0017947128        0.0004088256
	             0.0021884634       -0.0009959440       -0.0008566018
	            -0.0004229105       -0.0005861766       -0.0001326866
	             0.0226009209        0.0421892307        0.0282577182
	            -0.0005188619        0.0000699957        0.0000647562

	---Fragment 1 Intrafragment Coordinates---
	 - Coordinate -           - BOHR/RAD -       - ANG/DEG -
	 R(1,3)           =         2.641139	       1.397631
	 R(1,9)           =         2.615051	       1.383826
	 R(1,18)          =         3.262565	       1.726475
	 R(2,3)           =         2.577943	       1.364189
	 R(2,11)          =         2.649376	       1.401989
	 R(3,4)           =         2.614632	       1.383604
	 R(4,5)           =         2.028179	       1.073266
	 R(4,7)           =         2.615398	       1.384009
	 R(6,14)          =         2.239329	       1.185002
	 R(6,18)          =         4.470386	       2.365626
	 R(7,8)           =         2.619935	       1.386410
	 R(7,19)          =         3.275240	       1.733182
	 R(8,9)           =         2.616751	       1.384725
	 R(8,17)          =         3.275404	       1.733269
	 R(9,10)          =         2.026278	       1.072260
	 R(11,12)         =         2.052160	       1.085956
	 R(11,13)         =         2.048166	       1.083843
	 R(11,14)         =         2.868093	       1.517729
	 R(14,15)         =         2.507430	       1.326875
	 R(15,16)         =         1.804720	       0.955016
	 B(1,3,2)         =         2.167407	     124.183298
	 B(1,3,4)         =         2.071733	     118.701568
	 B(1,9,8)         =         2.107083	     120.726980
	 B(1,9,10)        =         2.088180	     119.643893
	 B(1,18,6)        =         1.883281	     107.904051
	 B(2,3,4)         =         2.042757	     117.041336
	 B(2,11,12)       =         1.903543	     109.064973
	 B(2,11,13)       =         1.920829	     110.055420
	 B(2,11,14)       =         1.989429	     113.985891
	 B(3,1,9)         =         2.094598	     120.011641
	 B(3,1,18)        =         2.102765	     120.479577
	 B(3,2,11)        =         2.084631	     119.440585
	 B(3,4,5)         =         2.070724	     118.643740
	 B(3,4,7)         =         2.117557	     121.327090
	 B(4,7,8)         =         2.089279	     119.706891
	 B(4,7,19)        =         2.065616	     118.351058
	 B(5,4,7)         =         2.094902	     120.029044
	 B(6,14,11)       =         2.141414	     122.693997
	 B(6,14,15)       =         2.181515	     124.991623
	 B(7,8,9)         =         2.085891	     119.512745
	 B(7,8,17)        =         2.129801	     122.028596
	 B(8,7,19)        =         2.128289	     121.941957
	 B(8,9,10)        =         2.087881	     119.626797
	 B(9,1,18)        =         2.085748	     119.504531
	 B(9,8,17)        =         2.067473	     118.457492
	 B(11,14,15)      =         1.960255	     112.314335
	 B(12,11,13)      =         1.877644	     107.581065
	 B(12,11,14)      =         1.883332	     107.906969
	 B(13,11,14)      =         1.885607	     108.037339
	 B(14,6,18)       =         2.109524	     120.866842
	 B(14,15,16)      =         1.884024	     107.946615
	 D(1,3,2,11)      =        -1.476097	     -84.574140
	 D(1,3,4,5)       =        -3.121837	    -178.868072
	 D(1,3,4,7)       =         0.017503	       1.002862
	 D(1,9,8,7)       =         0.004585	       0.262680
	 D(1,9,8,17)      =         3.139457	     179.877658
	 D(1,18,6,14)     =         0.392112	      22.466378
	 D(2,3,1,9)       =        -3.108535	    -178.105945
	 D(2,3,1,18)      =         0.019902	       1.140303
	 D(2,3,4,5)       =        -0.032466	      -1.860154
	 D(2,3,4,7)       =         3.106874	     178.010780
	 D(2,11,14,6)     =        -0.007278	      -0.417008
	 D(2,11,14,15)    =         3.135608	     179.657101
	 D(3,1,9,8)       =         0.012399	       0.710403
	 D(3,1,9,10)      =        -3.138922	    -179.846987
	 D(3,1,18,6)      =         0.383378	      21.965920
	 D(3,2,11,12)     =        -0.483294	     -27.690684
	 D(3,2,11,13)     =        -2.539284	    -145.490265
	 D(3,2,11,14)     =         1.622492	      92.961930
	 D(3,4,7,8)       =        -0.000765	      -0.043849
	 D(3,4,7,19)      =         3.138916	     179.846667
	 D(4,3,1,9)       =        -0.023173	      -1.327698
	 D(4,3,1,18)      =         3.105264	     177.918550
	 D(4,3,2,11)      =         1.720870	      98.598565
	 D(4,7,8,9)       =        -0.010422	      -0.597136
	 D(4,7,8,17)      =         3.138139	     179.802141
	 D(5,4,7,8)       =         3.138544	     179.825320
	 D(5,4,7,19)      =        -0.004960	      -0.284164
	 D(6,14,11,12)    =         2.109764	     120.880576
	 D(6,14,11,13)    =        -2.148071	    -123.075409
	 D(6,14,15,16)    =         0.013558	       0.776826
	 D(6,18,1,9)      =        -2.771304	    -158.784027
	 D(7,8,9,10)      =        -3.127281	    -179.180025
	 D(8,9,1,18)      =        -3.116167	    -178.543213
	 D(9,8,7,19)      =         3.133152	     179.516408
	 D(10,9,1,18)     =         0.015697	       0.899397
	 D(10,9,8,17)     =         0.007591	       0.434953
	 D(11,14,6,18)    =        -0.821757	     -47.083214
	 D(11,14,15,16)   =        -3.129363	    -179.299304
	 D(12,11,14,15)   =        -1.030535	     -59.045315
	 D(13,11,14,15)   =         0.994815	      56.998700
	 D(15,14,6,18)    =         2.318375	     132.833099
	 D(17,8,7,19)     =        -0.001472	      -0.084315

	Current energy   :     -1908.8425661036

	Energy change for the previous step:
		Projected    :        -0.0492843088
		Actual       :        -0.0425539857
	Energy ratio indicates good step: Trust radius increased to 1.000e+00.


	Performing BFGS update.
	Previous computed or guess Hessian on step 1.
	Steps to be used in Hessian update: 1
	Taking RFO optimization step.
	Going to follow RFO solution 1.
	Using RFO vector 1.
	Norm of target step-size    0.40349
	Projected energy change by RFO approximation:        -0.0208880860

	Back-transformation to cartesian coordinates...
	Could not converge backtransformation.
	Using first guess instead.

	--- Internal Coordinate Step in ANG or DEG, aJ/ANG or AJ/DEG ---
	 ---------------------------------------------------------------------------
	   Coordinate                Previous        Force       Change         New 
	   ----------                --------       ------       ------       ------
	    1 R(1,3)          =      1.397631    -0.021299    -0.005437     1.392194
	    2 R(1,9)          =      1.383826    -0.012649    -0.002068     1.381758
	    3 R(1,18)         =      1.726475    -0.013595     0.000903     1.727378
	    4 R(2,3)          =      1.364189    -0.018770    -0.005066     1.359122
	    5 R(2,11)         =      1.401989    -0.025398    -0.004931     1.397058
	    6 R(3,4)          =      1.383604     0.000663     0.000765     1.384368
	    7 R(4,5)          =      1.073266    -0.004580    -0.000689     1.072577
	    8 R(4,7)          =      1.384009    -0.012196    -0.001207     1.382803
	    9 R(6,14)         =      1.185002    -0.076374    -0.004231     1.180771
	   10 R(6,18)         =      2.365626     0.415434     0.177991     2.543618
	   11 R(7,8)          =      1.386410    -0.018103    -0.001958     1.384453
	   12 R(7,19)         =      1.733182    -0.004334    -0.000269     1.732913
	   13 R(8,9)          =      1.384725    -0.007871    -0.000549     1.384176
	   14 R(8,17)         =      1.733269    -0.006036    -0.001094     1.732175
	   15 R(9,10)         =      1.072260    -0.004969    -0.000234     1.072026
	   16 R(11,12)        =      1.085956    -0.001160    -0.000685     1.085271
	   17 R(11,13)        =      1.083843    -0.014911    -0.000595     1.083248
	   18 R(11,14)        =      1.517729    -0.018376    -0.003324     1.514405
	   19 R(14,15)        =      1.326875    -0.006049     0.001595     1.328470
	   20 R(15,16)        =      0.955016    -0.019707     0.000561     0.955578
	   21 B(1,3,2)        =    124.183298     0.000273    -0.259471   123.923827
	   22 B(1,3,4)        =    118.701568     0.000041     0.430980   119.132548
	   23 B(1,9,8)        =    120.726980     0.000172     0.595837   121.322817
	   24 B(1,9,10)       =    119.643893    -0.000119    -0.488116   119.155777
	   25 B(1,18,6)       =    107.904051    -0.000658    -2.432368   105.471683
	   26 B(2,3,4)        =    117.041336    -0.000313    -0.183758   116.857578
	   27 B(2,11,12)      =    109.064973     0.000324     2.549067   111.614040
	   28 B(2,11,13)      =    110.055420    -0.000339    -2.698610   107.356811
	   29 B(2,11,14)      =    113.985891    -0.000208    -1.322218   112.663672
	   30 B(3,1,9)        =    120.011641    -0.000172    -0.725890   119.285751
	   31 B(3,1,18)       =    120.479577     0.000373     1.407829   121.887406
	   32 B(3,2,11)       =    119.440585    -0.000087    -0.662082   118.778503
	   33 B(3,4,5)        =    118.643740    -0.000024    -0.023365   118.620375
	   34 B(3,4,7)        =    121.327090     0.000085     0.151758   121.478848
	   35 B(4,7,8)        =    119.706891    -0.000113    -0.445590   119.261301
	   36 B(4,7,19)       =    118.351058     0.000061     0.242212   118.593269
	   37 B(5,4,7)        =    120.029044    -0.000061    -0.129731   119.899313
	   38 B(6,14,11)      =    122.693997     0.000659     2.493945   125.187941
	   39 B(6,14,15)      =    124.991623    -0.000075    -0.735451   124.256171
	   40 B(7,8,9)        =    119.512745    -0.000014    -0.004149   119.508596
	   41 B(7,8,17)       =    122.028596     0.000014     0.066839   122.095434
	   42 B(8,7,19)       =    121.941957     0.000051     0.203391   122.145348
	   43 B(8,9,10)       =    119.626797    -0.000053    -0.106441   119.520356
	   44 B(9,1,18)       =    119.504531    -0.000201    -0.683620   118.820910
	   45 B(9,8,17)       =    118.457492     0.000001    -0.062395   118.395096
	   46 B(11,14,15)     =    112.314335    -0.000584    -1.758678   110.555657
	   47 B(12,11,13)     =    107.581065    -0.000047     0.202338   107.783403
	   48 B(12,11,14)     =    107.906969     0.000160     1.085443   108.992412
	   49 B(13,11,14)     =    108.037339     0.000123     0.213031   108.250370
	   50 B(14,6,18)      =    120.866842    -0.000567    -2.899702   117.967140
	   51 B(14,15,16)     =    107.946615     0.000122     0.876969   108.823584
	   52 D(1,3,2,11)     =    -84.574140    -0.000056    -4.098375   -88.672515
	   53 D(1,3,4,5)      =   -178.868072     0.000003     0.316841  -178.551232
	   54 D(1,3,4,7)      =      1.002862     0.000004     0.005218     1.008081
	   55 D(1,9,8,7)      =      0.262680    -0.000000     0.115223     0.377903
	   56 D(1,9,8,17)     =    179.877658    -0.000001     0.167402   180.045060
	   57 D(1,18,6,14)    =     22.466378    -0.000024    -2.005654    20.460724
	   58 D(2,3,1,9)      =   -178.105945    -0.000010     0.481928  -177.624017
	   59 D(2,3,1,18)     =      1.140303    -0.000009     0.338849     1.479152
	   60 D(2,3,4,5)      =     -1.860154     0.000012     0.069048    -1.791107
	   61 D(2,3,4,7)      =    178.010780     0.000012    -0.242575   177.768206
	   62 D(2,11,14,6)    =     -0.417008    -0.000047    -1.465463    -1.882471
	   63 D(2,11,14,15)   =    179.657101    -0.000030    -1.370697   178.286404
	   64 D(3,1,9,8)      =      0.710403     0.000004    -0.279749     0.430653
	   65 D(3,1,9,10)     =   -179.846987     0.000001    -0.096974  -179.943961
	   66 D(3,1,18,6)     =     21.965920    -0.000041    -0.271414    21.694506
	   67 D(3,2,11,12)    =    -27.690684     0.000035     2.435312   -25.255372
	   68 D(3,2,11,13)    =   -145.490265     0.000049     2.328481  -143.161784
	   69 D(3,2,11,14)    =     92.961930     0.000104     4.793208    97.755137
	   70 D(3,4,7,8)      =     -0.043849     0.000000    -0.158933    -0.202782
	   71 D(3,4,7,19)     =    179.846667    -0.000001     0.052310   179.898977
	   72 D(4,3,1,9)      =     -1.327698    -0.000005     0.220063    -1.107635
	   73 D(4,3,1,18)     =    177.918550    -0.000004     0.076984   177.995534
	   74 D(4,3,2,11)     =     98.598565    -0.000063    -3.860321    94.738244
	   75 D(4,7,8,9)      =     -0.597136    -0.000002     0.105039    -0.492098
	   76 D(4,7,8,17)     =    179.802141    -0.000001     0.051384   179.853525
	   77 D(5,4,7,8)      =    179.825320     0.000001    -0.474335   179.350985
	   78 D(5,4,7,19)     =     -0.284164     0.000000    -0.263092    -0.547256
	   79 D(6,14,11,12)   =    120.880576     0.000043     1.699978   122.580554
	   80 D(6,14,11,13)   =   -123.075409     0.000064     2.631349  -120.444060
	   81 D(6,14,15,16)   =      0.776826     0.000010    -0.100830     0.675996
	   82 D(6,18,1,9)     =   -158.784027    -0.000040    -0.414265  -159.198292
	   83 D(7,8,9,10)     =   -179.180025     0.000002    -0.066116  -179.246141
	   84 D(8,9,1,18)     =   -178.543213     0.000002    -0.156987  -178.700200
	   85 D(9,8,7,19)     =    179.516408    -0.000001    -0.114031   179.402377
	   86 D(10,9,1,18)    =      0.899397    -0.000001     0.025789     0.925186
	   87 D(10,9,8,17)    =      0.434953     0.000001    -0.013937     0.421016
	   88 D(11,14,6,18)   =    -47.083214     0.000070     2.966872   -44.116342
	   89 D(11,14,15,16)  =   -179.299304    -0.000008    -0.191683  -179.490986
	   90 D(12,11,14,15)  =    -59.045315     0.000060     1.794744   -57.250571
	   91 D(13,11,14,15)  =     56.998700     0.000081     2.726115    59.724815
	   92 D(15,14,6,18)   =    132.833099     0.000050     2.859249   135.692349
	   93 D(17,8,7,19)    =     -0.084315     0.000000    -0.167686    -0.252001
	 ---------------------------------------------------------------------------
	Successfully symmetrized geometry.

  ==> Convergence Check <==

  Measures of convergence in internal coordinates in au.
  Criteria marked as inactive (o), active & met (*), and active & unmet ( ).
  ---------------------------------------------------------------------------------------------
   Step     Total Energy     Delta E     MAX Force     RMS Force      MAX Disp      RMS Disp   
  ---------------------------------------------------------------------------------------------
    Convergence Criteria             o    1.50e-05 *    1.00e-05 *    6.00e-05 *    4.00e-05 *
  ---------------------------------------------------------------------------------------------
      2   -1908.84256610   -4.26e-02 o    5.04e-02      5.91e-03      3.36e-01      4.18e-02    ~
  ---------------------------------------------------------------------------------------------

	Writing optimization data to binary file.
	Structure for next step:
	Cartesian Geometry (in Angstrom)
	    C     0.7307235588  -0.3766844779  -0.5519817687
	    O     0.7975201604   1.9768112040   0.0430017653
	    C     0.1251144763   0.8124109447  -0.1551281824
	    C    -1.2514413404   0.8533174936  -0.0140723208
	    H    -1.7115668128   1.7798539289   0.2691893531
	    O     3.4483986745   1.4214254350   0.5338635908
	    C    -2.0338295753  -0.2645644769  -0.2384635949
	    C    -1.4273057825  -1.4502207432  -0.6166924286
	    C    -0.0526807429  -1.4931901918  -0.7732226380
	    H     0.4159249898  -2.4079771313  -1.0778743976
	    C     1.3311801823   2.2385629479   1.3073056896
	    H     0.7928940309   1.7079643500   2.0861042655
	    H     1.2190508398   3.3000499708   1.4919610443
	    C     2.8026684892   1.8934635836   1.4024443668
	    O     3.2749080538   2.1923983299   2.6076251907
	    H     4.2044031371   1.9727179973   2.6377639629
[...]
	 B(12,11,13)      =         1.888876	     108.224644
	 B(12,11,14)      =         1.888433	     108.199249
	 B(13,11,14)      =         1.888429	     108.198990
	 B(14,6,18)       =         1.725542	      98.866303
	 B(14,15,16)      =         1.895999	     108.632727
	 D(1,3,2,11)      =         3.141593	     180.000000
	 D(1,3,4,5)       =         3.141571	     179.998733
	 D(1,3,4,7)       =        -0.000020	      -0.001133
	 D(1,9,8,7)       =        -0.000016	      -0.000911
	 D(1,9,8,17)      =         3.141593	     180.000000
	 D(1,18,6,14)     =         0.000000	       0.000000
	 D(2,3,1,9)       =         3.141593	     180.000000
	 D(2,3,1,18)      =        -0.000000	      -0.000000
	 D(2,3,4,5)       =        -0.000000	      -0.000000
	 D(2,3,4,7)       =         3.141593	     180.000000
	 D(2,11,14,6)     =        -0.000020	      -0.001119
	 D(2,11,14,15)    =         3.141564	     179.998385
	 D(3,1,9,8)       =         0.000000	       0.000000
	 D(3,1,9,10)      =         3.141593	     180.000000
	 D(3,1,18,6)      =        -0.000000	      -0.000000
	 D(3,2,11,12)     =         1.059678	      60.715097
	 D(3,2,11,13)     =        -1.059627	     -60.712165
	 D(3,2,11,14)     =        -3.141564	    -179.998336
	 D(3,4,7,8)       =         0.000000	       0.000000
	 D(3,4,7,19)      =         3.141593	     180.000000
	 D(4,3,1,9)       =         0.000000	       0.000000
	 D(4,3,1,18)      =        -3.141576	    -179.999063
	 D(4,3,2,11)      =        -0.000022	      -0.001241
	 D(4,7,8,9)       =         0.000000	       0.000000
	 D(4,7,8,17)      =         3.141573	     179.998871
	 D(5,4,7,8)       =         3.141593	     180.000000
	 D(5,4,7,19)      =        -0.000000	      -0.000000
	 D(6,14,11,12)    =         2.120197	     121.478331
	 D(6,14,11,13)    =        -2.120231	    -121.480260
	 D(6,14,15,16)    =        -0.000000	      -0.000000
	 D(6,18,1,9)      =         3.141593	     180.000000
	 D(7,8,9,10)      =         3.141593	     180.000000
	 D(8,9,1,18)      =         3.141593	     180.000000
	 D(9,8,7,19)      =        -3.141565	    -179.998422
	 D(10,9,1,18)     =        -0.000000	      -0.000000
	 D(10,9,8,17)     =         0.000015	       0.000881
	 D(11,14,6,18)    =         0.000017	       0.000967
	 D(11,14,15,16)   =         3.141593	     180.000000
	 D(12,11,14,15)   =        -1.021404	     -58.522165
	 D(13,11,14,15)   =         1.021353	      58.519244
	 D(15,14,6,18)    =        -3.141566	    -179.998468
	 D(17,8,7,19)     =        -0.000000	      -0.000000

	Current energy   :     -1908.8792307600

	Energy change for the previous step:
		Projected    :         0.0000000014
		Actual       :        -0.0000000010

	Performing BFGS update.
	Previous computed or guess Hessian on step 1.
	Denominators (dg)(dq) or (dq)(dq) are very small.
	 Skipping Hessian update for step 36.
	Denominators (dg)(dq) or (dq)(dq) are very small.
	 Skipping Hessian update for step 35.
	Denominators (dg)(dq) or (dq)(dq) are very small.
	 Skipping Hessian update for step 34.
	Denominators (dg)(dq) or (dq)(dq) are very small.
	 Skipping Hessian update for step 33.
	Steps to be used in Hessian update: 32 31
	Taking RFO optimization step.
	Going to follow RFO solution 1.
	Using RFO vector 1.
	Norm of target step-size    0.00012
	Projected energy change by RFO approximation:         0.0000000015

	Back-transformation to cartesian coordinates...
	Could not converge backtransformation.
	Using first guess instead.

	--- Internal Coordinate Step in ANG or DEG, aJ/ANG or AJ/DEG ---
	 ---------------------------------------------------------------------------
	   Coordinate                Previous        Force       Change         New 
	   ----------                --------       ------       ------       ------
	    1 R(1,3)          =      1.397716     0.000000    -0.000001     1.397715
	    2 R(1,9)          =      1.373620    -0.000000     0.000000     1.373620
	    3 R(1,18)         =      1.730351     0.000007     0.000002     1.730353
	    4 R(2,3)          =      1.339206    -0.000001    -0.000000     1.339206
	    5 R(2,11)         =      1.389258    -0.000006    -0.000000     1.389257
	    6 R(3,4)          =      1.382213    -0.000005    -0.000001     1.382212
	    7 R(4,5)          =      1.070482    -0.000005    -0.000001     1.070481
	    8 R(4,7)          =      1.389935    -0.000003    -0.000001     1.389934
	    9 R(6,14)         =      1.179296     0.000021     0.000001     1.179297
	   10 R(6,18)         =      4.504122     0.000001     0.000001     4.504123
	   11 R(7,8)          =      1.378777    -0.000007    -0.000001     1.378777
	   12 R(7,19)         =      1.731604     0.000002     0.000000     1.731604
	   13 R(8,9)          =      1.389465     0.000000     0.000000     1.389465
	   14 R(8,17)         =      1.732291    -0.000004    -0.000001     1.732290
	   15 R(9,10)         =      1.071965    -0.000005    -0.000001     1.071964
	   16 R(11,12)        =      1.084925     0.000010     0.000002     1.084927
	   17 R(11,13)        =      1.084926     0.000004     0.000001     1.084927
	   18 R(11,14)        =      1.511704     0.000001     0.000001     1.511704
	   19 R(14,15)        =      1.330339    -0.000020    -0.000002     1.330336
	   20 R(15,16)        =      0.952644     0.000001     0.000000     0.952644
	   21 B(1,3,2)        =    117.030374     0.000000     0.000283   117.030657
	   22 B(1,3,4)        =    118.646722    -0.000000    -0.000185   118.646537
	   23 B(1,9,8)        =    120.917752    -0.000000    -0.000025   120.917728
	   24 B(1,9,10)       =    119.592121     0.000000     0.000194   119.592315
	   25 B(1,18,6)       =     88.489985    -0.000000    -0.000200    88.489785
	   26 B(2,3,4)        =    124.322904    -0.000000    -0.000098   124.322806
	   27 B(2,11,12)      =    111.737057     0.000000    -0.000027   111.737030
	   28 B(2,11,13)      =    111.736931     0.000000     0.000008   111.736939
	   29 B(2,11,14)      =    108.624502    -0.000000    -0.000143   108.624359
	   30 B(3,1,9)        =    120.319929     0.000000     0.000174   120.320104
	   31 B(3,1,18)       =    120.204315    -0.000000     0.000037   120.204352
	   32 B(3,2,11)       =    120.085240     0.000000     0.000047   120.085287
	   33 B(3,4,5)        =    121.051224    -0.000000    -0.000170   121.051054
	   34 B(3,4,7)        =    120.804781     0.000000     0.000040   120.804821
	   35 B(4,7,8)        =    120.288531     0.000000     0.000165   120.288696
	   36 B(4,7,19)       =    117.795080    -0.000000    -0.000043   117.795037
	   37 B(5,4,7)        =    118.143995     0.000000     0.000130   118.144125
	   38 B(6,14,11)      =    126.869761    -0.000000    -0.000196   126.869564
	   39 B(6,14,15)      =    124.047115     0.000000     0.000019   124.047134
	   40 B(7,8,9)        =    119.022285    -0.000000    -0.000170   119.022115
	   41 B(7,8,17)       =    122.472875     0.000000     0.000181   122.473056
	   42 B(8,7,19)       =    121.916389    -0.000000    -0.000122   121.916267
	   43 B(8,9,10)       =    119.490127    -0.000000    -0.000169   119.489957
	   44 B(9,1,18)       =    119.475755    -0.000000    -0.000212   119.475544
	   45 B(9,8,17)       =    118.504840    -0.000000    -0.000011   118.504829
	   46 B(11,14,15)     =    109.083124     0.000000     0.000178   109.083302
	   47 B(12,11,13)     =    108.224644    -0.000000     0.000017   108.224661
	   48 B(12,11,14)     =    108.199249     0.000000    -0.000118   108.199131
	   49 B(13,11,14)     =    108.198990     0.000000     0.000270   108.199261
	   50 B(14,6,18)      =     98.866303     0.000000     0.000267    98.866569
	   51 B(14,15,16)     =    108.632727    -0.000000    -0.000035   108.632692
	   52 D(1,3,2,11)     =    180.000000    -0.000000    -0.002167   179.997833
	   53 D(1,3,4,5)      =    179.998733     0.000000     0.001267   180.000000
	   54 D(1,3,4,7)      =     -0.001133     0.000000     0.001133     0.000000
	   55 D(1,9,8,7)      =     -0.000911     0.000000     0.000911     0.000000
	   56 D(1,9,8,17)     =    180.000000    -0.000000     0.000000   180.000000
	   57 D(1,18,6,14)    =      0.000000    -0.000000     0.000000     0.000000
	   58 D(2,3,1,9)      =    180.000000     0.000000     0.000000   180.000000
	   59 D(2,3,1,18)     =      0.000000     0.000000     0.000000     0.000000
	   60 D(2,3,4,5)      =      0.000000    -0.000000     0.000000     0.000000
	   61 D(2,3,4,7)      =    180.000000    -0.000000     0.000000   180.000000
	   62 D(2,11,14,6)    =     -0.001119     0.000000     0.000207    -0.000911
	   63 D(2,11,14,15)   =    179.998385     0.000000     0.000627   179.999013
	   64 D(3,1,9,8)      =      0.000000    -0.000000     0.000000     0.000000
	   65 D(3,1,9,10)     =    180.000000    -0.000000     0.000000   180.000000
	   66 D(3,1,18,6)     =      0.000000    -0.000000    -0.001319    -0.001319
	   67 D(3,2,11,12)    =     60.715097     0.000000     0.000766    60.715863
	   68 D(3,2,11,13)    =    -60.712165    -0.000000     0.000758   -60.711407
	   69 D(3,2,11,14)    =   -179.998336    -0.000000     0.000511  -179.997825
	   70 D(3,4,7,8)      =      0.000000    -0.000000     0.000000     0.000000
	   71 D(3,4,7,19)     =    180.000000     0.000000     0.000000   180.000000
	   72 D(4,3,1,9)      =      0.000000    -0.000000     0.000000     0.000000
	   73 D(4,3,1,18)     =   -179.999063    -0.000000    -0.000937  -180.000000
	   74 D(4,3,2,11)     =     -0.001241     0.000000     0.000059    -0.001183
	   75 D(4,7,8,9)      =      0.000000    -0.000000     0.000000     0.000000
	   76 D(4,7,8,17)     =    179.998871     0.000000     0.002261   180.001132
	   77 D(5,4,7,8)      =    180.000000    -0.000000     0.000000   180.000000
	   78 D(5,4,7,19)     =      0.000000     0.000000     0.000000     0.000000
	   79 D(6,14,11,12)   =    121.478331    -0.000000     0.000019   121.478350
	   80 D(6,14,11,13)   =   -121.480260    -0.000000     0.000121  -121.480139
	   81 D(6,14,15,16)   =      0.000000     0.000000     0.000000     0.000000
	   82 D(6,18,1,9)     =    180.000000    -0.000000    -0.001547   179.998453
	   83 D(7,8,9,10)     =    180.000000     0.000000     0.000000   180.000000
	   84 D(8,9,1,18)     =    180.000000    -0.000000     0.000000   180.000000
	   85 D(9,8,7,19)     =   -179.998422    -0.000000    -0.002798  -180.001220
	   86 D(10,9,1,18)    =      0.000000    -0.000000     0.000000     0.000000
	   87 D(10,9,8,17)    =      0.000881    -0.000000    -0.001712    -0.000831
	   88 D(11,14,6,18)   =      0.000967     0.000000     0.000802     0.001769
	   89 D(11,14,15,16)  =    180.000000    -0.000000     0.000000   180.000000
	   90 D(12,11,14,15)  =    -58.522165     0.000000     0.000439   -58.521726
	   91 D(13,11,14,15)  =     58.519244     0.000000     0.000541    58.519784
	   92 D(15,14,6,18)   =   -179.998468    -0.000000     0.000324  -179.998144
	   93 D(17,8,7,19)    =      0.000000     0.000000     0.000000     0.000000
	 ---------------------------------------------------------------------------
	Successfully symmetrized geometry.

  ==> Convergence Check <==

  Measures of convergence in internal coordinates in au.
  Criteria marked as inactive (o), active & met (*), and active & unmet ( ).
  ---------------------------------------------------------------------------------------------
   Step     Total Energy     Delta E     MAX Force     RMS Force      MAX Disp      RMS Disp   
  ---------------------------------------------------------------------------------------------
    Convergence Criteria             o    1.50e-05 *    1.00e-05 *    6.00e-05 *    4.00e-05 *
  ---------------------------------------------------------------------------------------------
     37   -1908.87923076   -9.67e-10 o    2.58e-06 *    6.53e-07 *    4.88e-05 *    1.05e-05 *  ~
  ---------------------------------------------------------------------------------------------


  **** Optimization is complete! (in 37 steps) ****

  ==> Optimization Summary <==

  Measures of convergence in internal coordinates in au.
  --------------------------------------------------------------------------------------------------------------- ~
   Step         Total Energy             Delta E       MAX Force       RMS Force        MAX Disp        RMS Disp  ~
  --------------------------------------------------------------------------------------------------------------- ~
      1   -1908.800012117928  -1908.800012117928      0.11565637      0.01297969      0.46507558      0.05183243  ~
      2   -1908.842566103612     -0.042553985684      0.05042458      0.00591453      0.33635512      0.04175062  ~
      3   -1908.858378405572     -0.015812301959      0.02856503      0.00315685      0.37212347      0.04485514  ~
      4   -1908.867210326479     -0.008831920908      0.01418709      0.00175283      0.34042978      0.04467104  ~
      5   -1908.871583060163     -0.004372733684      0.00783721      0.00125911      0.38141654      0.05120754  ~
      6   -1908.873502925073     -0.001919864910      0.00547059      0.00141162      0.29087934      0.04031018  ~
      7   -1908.875007717792     -0.001504792719      0.00477035      0.00101674      0.19197974      0.02592019  ~
      8   -1908.875548022052     -0.000540304261      0.00189754      0.00048425      0.19584325      0.02600037  ~
      9   -1908.875891781807     -0.000343759755      0.00113285      0.00030119      0.28242564      0.03949864  ~
     10   -1908.876230720949     -0.000338939142      0.00148823      0.00031604      0.37358481      0.05423606  ~
     11   -1908.876628154649     -0.000397433699      0.00144325      0.00050764      0.64825356      0.09415670  ~
     12   -1908.876668934861     -0.000040780212      0.01091404      0.00264958      0.12299468      0.03029650  ~
     13   -1908.877340057149     -0.000671122289      0.00358403      0.00112826      0.20361019      0.05487101  ~
     14   -1908.876544741699      0.000795315450      0.01330465      0.00228837      0.07401059      0.02015346  ~
     15   -1908.877500119112     -0.000955377413      0.00628480      0.00124896      0.08934445      0.02189307  ~
     16   -1908.877777589315     -0.000277470202      0.00549432      0.00090194      0.06295868      0.01671578  ~
     17   -1908.877985978800     -0.000208389486      0.00314282      0.00058917      0.14355175      0.03141682  ~
     18   -1908.878290647971     -0.000304669171      0.00478759      0.00112743      0.26717782      0.05634979  ~
     19   -1908.877978900617      0.000311747354      0.01450990      0.00325339      0.03026467      0.00859234  ~
     20   -1908.878918776150     -0.000939875534      0.00475402      0.00109387      0.14463546      0.03443561  ~
     21   -1908.879148846042     -0.000230069891      0.00312480      0.00068213      0.02282715      0.00589838  ~
     22   -1908.879206411902     -0.000057565860      0.00095746      0.00023598      0.03563981      0.00941496  ~
     23   -1908.879220464583     -0.000014052682      0.00060242      0.00013979      0.00742635      0.00210468  ~
     24   -1908.879224054767     -0.000003590184      0.00026434      0.00006437      0.00713937      0.00168813  ~
     25   -1908.879225354599     -0.000001299832      0.00015560      0.00004440      0.00380610      0.00091586  ~
     26   -1908.879226325667     -0.000000971069      0.00015782      0.00003936      0.00658659      0.00197625  ~
     27   -1908.879227712037     -0.000001386370      0.00018925      0.00005132      0.00944589      0.00286369  ~
     28   -1908.879229445854     -0.000001733817      0.00015689      0.00004326      0.00912585      0.00283825  ~
     29   -1908.879230494122     -0.000001048268      0.00007878      0.00001645      0.00182778      0.00046123  ~
     30   -1908.879230599959     -0.000000105837      0.00003288      0.00000663      0.00079979      0.00017995  ~
     31   -1908.879230643195     -0.000000043236      0.00002333      0.00000478      0.00089530      0.00022308  ~
     32   -1908.879230689846     -0.000000046651      0.00001792      0.00000532      0.00087090      0.00022634  ~
     33   -1908.879230721214     -0.000000031368      0.00001834      0.00000556      0.00116369      0.00032159  ~
     34   -1908.879230747847     -0.000000026634      0.00002041      0.00000452      0.00084232      0.00023326  ~
     35   -1908.879230758605     -0.000000010758      0.00001278      0.00000264      0.00028053      0.00008081  ~
     36   -1908.879230759011     -0.000000000405      0.00000660      0.00000125      0.00006427      0.00002246  ~
     37   -1908.879230759978     -0.000000000967      0.00000258      0.00000065      0.00004883      0.00001045  ~
  --------------------------------------------------------------------------------------------------------------- ~

	Writing optimization data to binary file.
	Final energy is  -1908.8792307599779
	Final (previous) structure:
	Cartesian Geometry (in Angstrom)
	    C     0.6288201985  -0.8432031569  -0.9139926298
	    O     1.6436947259   0.6171710836   0.5978846962
	    C     0.5081144585   0.1109152913   0.1002546004
	    C    -0.7572704384   0.4709104128   0.5241846301
	    H    -0.8943659162   1.1975733301   1.2981987942
	    O     4.0061634278   1.5380700691   1.4929907551
	    C    -1.8884768124  -0.1024445890  -0.0446342346
	    C    -1.7631773338  -1.0431387114  -1.0448449340
	    C    -0.4922809710  -1.4068193983  -1.4728319755
	    H    -0.3861523811  -2.1374770354  -2.2499970376
	    C     1.5976299111   1.5698038844   1.6080360236
	    H     1.1121384704   1.1869513902   2.4995426547
	    H     1.0713221326   2.4646073420   1.2927731286
	    C     3.0129862729   1.9576507093   1.9707883775
	    O     2.9795154817   2.8703007213   2.9381305876
	    H     3.8740406827   3.1099327688   3.1615839602
	   CL    -3.1336521118  -1.7934792362  -1.7929219265
	   CL     2.1934399504  -1.3236148209  -1.4754955228
	   CL    -3.4350129102   0.4056997409   0.5456770292
	Saving final (previous) structure.
	Removing binary optimization data file.
			--------------------------
			 OPTKING Finished Execution 
			--------------------------

    Final optimized geometry and variables:
    Molecular point group: c1
    Full point group: C1

    Geometry (in Angstrom), charge = 0, multiplicity = 1:

    C            0.628820198519    -0.843203156885    -0.913992629829
    O            1.643694725914     0.617171083613     0.597884696229
    C            0.508114458456     0.110915291267     0.100254600365
    C           -0.757270438360     0.470910412826     0.524184630055
    H           -0.894365916239     1.197573330088     1.298198794245
    O            4.006163427778     1.538070069143     1.492990755080
    C           -1.888476812419    -0.102444588959    -0.044634234591
    C           -1.763177333836    -1.043138711388    -1.044844933989
    C           -0.492280971042    -1.406819398322    -1.472831975493
    H           -0.386152381127    -2.137477035360    -2.249997037638
    C            1.597629911095     1.569803884410     1.608036023636
    H            1.112138470434     1.186951390164     2.499542654698
    H            1.071322132583     2.464607342012     1.292773128605
    C            3.012986272935     1.957650709318     1.970788377492
    O            2.979515481710     2.870300721308     2.938130587638
    H            3.874040682745     3.109932768810     3.161583960173
    CL          -3.133652111779    -1.793479236160    -1.792921926502
    CL           2.193439950440    -1.323614820946    -1.475495522786
    CL          -3.435012910170     0.405699740884     0.545677029160

	Removing binary optimization data file.
	Cleaning optimization helper files.

    Psi4 stopped on: Thursday, 27 September 2018 12:51PM
    Psi4 wall time for execution: 0:06:00.92

*** Psi4 exiting successfully. Buy a developer a beer!
