
    -----------------------------------------------------------------------
          Psi4: An Open-Source Ab Initio Electronic Structure Package
                               Psi4 1.2.1 release

                         Git: Rev {HEAD} 406f4de 


    R. M. Parrish, L. A. Burns, D. G. A. Smith, A. C. Simmonett,
    A. E. DePrince III, E. G. Hohenstein, U. Bozkaya, A. Yu. Sokolov,
    R. Di Remigio, R. M. Richard, J. F. Gonthier, A. M. James,
    H. R. McAlexander, A. Kumar, M. Saitow, X. Wang, B. P. Pritchard,
    P. Verma, H. F. Schaefer III, K. Patkowski, R. A. King, E. F. Valeev,
    F. A. Evangelista, J. M. Turney, T. D. Crawford, and C. D. Sherrill,
    J. Chem. Theory Comput. 13(7) pp 3185--3197 (2017).
    (doi: 10.1021/acs.jctc.7b00174)


                         Additional Contributions by
    P. Kraus, H. Kruse, M. H. Lechner, M. C. Schieber, and R. A. Shaw

    -----------------------------------------------------------------------


    Psi4 started on: Wednesday, 26 September 2018 03:53PM

    Process ID: 434149
    Host:       wr53
    PSIDATADIR: /usr/local/hpc1/software_molmod/psi4/psi4conda/share/psi4
    Memory:     500.0 MiB
    Threads:    16
    
  ==> Input File <==

--------------------------------------------------------------------------
memory 110 Gb

molecule molecule_1 {
    C            1.243384873651    -0.553327042251    -0.656822911851
    O            1.246781758555     1.784310747571    -0.148627178379
    C            0.577645351133     0.619210161727    -0.322205407311
    C           -0.801771232164     0.605460556206    -0.231643198010
    H           -1.311145021654     1.515926452256     0.010187939104
    O            1.373930742304     2.936778574616     3.210659736837
    C           -1.515549413650    -0.558856391206    -0.455032487882
    C           -0.844238712188    -1.729162790057    -0.774650703247
    C            0.536163016532    -1.718098713638    -0.876601108753
    H            1.056651670815    -2.618891866566    -1.134461325835
    C            1.858960536947     2.017172498748     1.088859728105
    H            2.726039462849     2.635300003023     0.902858621287
    H            2.197054903682     1.102349504016     1.555888785795
    C            1.001154442913     2.753348082595     2.099261950920
    O           -0.158755063523     3.187841927737     1.637011993567
    H           -0.602582810620     3.649642431175     2.343035899296
    CL          -1.678152192567    -3.219187924273    -1.062136931510
    CL           2.970172275707    -0.569093931528    -0.825544467258
    CL          -3.240772045718    -0.503112527800    -0.323460442306
}
set globals {
  reference rhf
  g_convergence gau_tight
  basis 6-31G(d)
}
frequency('hf', dertype=1)
--------------------------------------------------------------------------

  Memory set to 102.445 GiB by Python driver.
gradient() will perform analytic gradient computation.

*** tstart() called on wr53
*** at Wed Sep 26 15:53:27 2018

   => Loading Basis Set <=

    Name: 6-31G(D)
    Role: ORBITAL
    Keyword: BASIS
    atoms 1, 3-4, 7-9, 11, 14 entry C          line   111 file /usr/local/hpc1/software_molmod/psi4/psi4conda/share/psi4/basis/6-31g_d_.gbs 
    atoms 2, 6, 15            entry O          line   145 file /usr/local/hpc1/software_molmod/psi4/psi4conda/share/psi4/basis/6-31g_d_.gbs 
    atoms 5, 10, 12-13, 16    entry H          line    44 file /usr/local/hpc1/software_molmod/psi4/psi4conda/share/psi4/basis/6-31g_d_.gbs 
    atoms 17-19               entry CL         line   340 file /usr/local/hpc1/software_molmod/psi4/psi4conda/share/psi4/basis/6-31g_d_.gbs 

    There are an even number of electrons - assuming singlet.
    Specify the multiplicity in the molecule input block.


         ---------------------------------------------------------
                                   SCF
            by Justin Turney, Rob Parrish, Andy Simmonett
                             and Daniel Smith
                              RHF Reference
                       16 Threads, 104904 MiB Core
         ---------------------------------------------------------

  ==> Geometry <==

    Molecular point group: c1
    Full point group: C1

    Geometry (in Angstrom), charge = 0, multiplicity = 1:

       Center              X                  Y                   Z               Mass       
    ------------   -----------------  -----------------  -----------------  -----------------
         C            1.243384873651    -0.553327042251    -0.656822911851    12.000000000000
         O            1.246781758555     1.784310747571    -0.148627178379    15.994914619560
         C            0.577645351133     0.619210161727    -0.322205407311    12.000000000000
         C           -0.801771232164     0.605460556206    -0.231643198010    12.000000000000
         H           -1.311145021654     1.515926452256     0.010187939104     1.007825032070
         O            1.373930742304     2.936778574616     3.210659736837    15.994914619560
         C           -1.515549413650    -0.558856391206    -0.455032487882    12.000000000000
         C           -0.844238712188    -1.729162790057    -0.774650703247    12.000000000000
         C            0.536163016532    -1.718098713638    -0.876601108753    12.000000000000
         H            1.056651670815    -2.618891866566    -1.134461325835     1.007825032070
         C            1.858960536947     2.017172498748     1.088859728105    12.000000000000
         H            2.726039462849     2.635300003023     0.902858621287     1.007825032070
         H            2.197054903682     1.102349504016     1.555888785795     1.007825032070
         C            1.001154442913     2.753348082595     2.099261950920    12.000000000000
         O           -0.158755063523     3.187841927737     1.637011993567    15.994914619560
         H           -0.602582810620     3.649642431175     2.343035899296     1.007825032070
         CL          -1.678152192567    -3.219187924273    -1.062136931510    34.968852682000
         CL           2.970172275707    -0.569093931528    -0.825544467258    34.968852682000
         CL          -3.240772045718    -0.503112527800    -0.323460442306    34.968852682000

  Running in c1 symmetry.

  Rotational constants: A =      0.02123  B =      0.01041  C =      0.00744 [cm^-1]
  Rotational constants: A =    636.53896  B =    311.97182  C =    223.17389 [MHz]
  Nuclear repulsion = 1187.278851054949882

  Charge       = 0
  Multiplicity = 1
  Electrons    = 128
  Nalpha       = 64
  Nbeta        = 64

  ==> Algorithm <==

  SCF Algorithm Type is DF.
  DIIS enabled.
  MOM disabled.
  Fractional occupation disabled.
  Guess Type is SAD.
  Energy threshold   = 1.00e-08
  Density threshold  = 1.00e-08
  Integral threshold = 0.00e+00

  ==> Primary Basis <==

  Basis Set: 6-31G(D)
    Blend: 6-31G(D)
    Number of shells: 100
    Number of basis function: 232
    Number of Cartesian functions: 232
    Spherical Harmonics?: false
    Max angular momentum: 2

   => Loading Basis Set <=

    Name: (6-31G(D) AUX)
    Role: JKFIT
    Keyword: DF_BASIS_SCF
    atoms 1, 3-4, 7-9, 11, 14 entry C          line   121 file /usr/local/hpc1/software_molmod/psi4/psi4conda/share/psi4/basis/cc-pvdz-jkfit.gbs 
    atoms 2, 6, 15            entry O          line   221 file /usr/local/hpc1/software_molmod/psi4/psi4conda/share/psi4/basis/cc-pvdz-jkfit.gbs 
    atoms 5, 10, 12-13, 16    entry H          line    51 file /usr/local/hpc1/software_molmod/psi4/psi4conda/share/psi4/basis/cc-pvdz-jkfit.gbs 
    atoms 17-19               entry CL         line   667 file /usr/local/hpc1/software_molmod/psi4/psi4conda/share/psi4/basis/cc-pvdz-jkfit.gbs 

  ==> Pre-Iterations <==

   -------------------------------------------------------
    Irrep   Nso     Nmo     Nalpha   Nbeta   Ndocc  Nsocc
   -------------------------------------------------------
     A        232     232       0       0       0       0
   -------------------------------------------------------
    Total     232     232      64      64      64       0
   -------------------------------------------------------

  ==> Integral Setup <==

  ==> DiskDFJK: Density-Fitted J/K Matrices <==

    J tasked:                  Yes
    K tasked:                  Yes
    wK tasked:                  No
    OpenMP threads:             16
    Integrals threads:          16
    Memory (MB):             78678
    Algorithm:                Core
    Integral Cache:           NONE
    Schwarz Cutoff:          1E-12
    Fitting Condition:       1E-12

   => Auxiliary Basis Set <=

  Basis Set: (6-31G(D) AUX)
    Blend: CC-PVDZ-JKFIT
    Number of shells: 417
    Number of basis function: 1406
    Number of Cartesian functions: 1406
    Spherical Harmonics?: false
    Max angular momentum: 3

  Minimum eigenvalue in the overlap matrix is 3.6636755838E-04.
  Using Symmetric Orthogonalization.

  SCF Guess: Superposition of Atomic Densities via on-the-fly atomic UHF.

  ==> Iterations <==

                           Total Energy        Delta E     RMS |[F,P]|

   @DF-RHF iter   0: -1914.94798196469856   -1.91495e+03   5.65203e-02 
   @DF-RHF iter   1: -1908.44000542988965    6.50798e+00   7.36571e-03 
   @DF-RHF iter   2: -1908.76817079557441   -3.28165e-01   3.84326e-03 DIIS
   @DF-RHF iter   3: -1908.85995317644324   -9.17824e-02   9.66809e-04 DIIS
   @DF-RHF iter   4: -1908.87735290008391   -1.73997e-02   3.34611e-04 DIIS
   @DF-RHF iter   5: -1908.87955069489999   -2.19779e-03   1.43912e-04 DIIS
   @DF-RHF iter   6: -1908.87990030194692   -3.49607e-04   4.76563e-05 DIIS
   @DF-RHF iter   7: -1908.87994975170295   -4.94498e-05   1.86422e-05 DIIS
   @DF-RHF iter   8: -1908.87995522172150   -5.47002e-06   5.51733e-06 DIIS
   @DF-RHF iter   9: -1908.87995625799294   -1.03627e-06   3.15647e-06 DIIS
   @DF-RHF iter  10: -1908.87995648464221   -2.26649e-07   9.30730e-07 DIIS
   @DF-RHF iter  11: -1908.87995651739539   -3.27532e-08   4.39241e-07 DIIS
   @DF-RHF iter  12: -1908.87995652190966   -4.51428e-09   2.41568e-07 DIIS
   @DF-RHF iter  13: -1908.87995652279392   -8.84256e-10   9.24220e-08 DIIS
   @DF-RHF iter  14: -1908.87995652297377   -1.79853e-10   3.06156e-08 DIIS
   @DF-RHF iter  15: -1908.87995652299105   -1.72804e-11   1.08483e-08 DIIS
   @DF-RHF iter  16: -1908.87995652299151   -4.54747e-13   5.35138e-09 DIIS

  ==> Post-Iterations <==

    Orbital Energies [Eh]
    ---------------------

    Doubly Occupied:                                                      

       1A   -104.850319     2A   -104.846822     3A   -104.846549  
       4A    -20.639342     5A    -20.616741     6A    -20.571767  
       7A    -11.404865     8A    -11.337770     9A    -11.335847  
      10A    -11.333421    11A    -11.329341    12A    -11.323561  
      13A    -11.283593    14A    -11.272949    15A    -10.583359  
      16A    -10.580086    17A    -10.579771    18A     -8.052801  
      19A     -8.049529    20A     -8.049354    21A     -8.049296  
      22A     -8.049217    23A     -8.046004    24A     -8.045980  
      25A     -8.045680    26A     -8.045677    27A     -1.502440  
      28A     -1.448547    29A     -1.390905    30A     -1.244174  
      31A     -1.187295    32A     -1.154076    33A     -1.114742  
      34A     -1.055483    35A     -1.021138    36A     -0.981886  
      37A     -0.882603    38A     -0.869761    39A     -0.825344  
      40A     -0.751109    41A     -0.740058    42A     -0.720006  
      43A     -0.709888    44A     -0.685360    45A     -0.672250  
      46A     -0.652354    47A     -0.639856    48A     -0.613258  
      49A     -0.609272    50A     -0.593428    51A     -0.575209  
      52A     -0.564234    53A     -0.549935    54A     -0.530595  
      55A     -0.514752    56A     -0.500672    57A     -0.495760  
      58A     -0.485563    59A     -0.474890    60A     -0.460807  
      61A     -0.459163    62A     -0.451446    63A     -0.366104  
      64A     -0.346792  

    Virtual:                                                              

      65A      0.096506    66A      0.105239    67A      0.148897  
      68A      0.171890    69A      0.202869    70A      0.209847  
      71A      0.234131    72A      0.251296    73A      0.287808  
      74A      0.294503    75A      0.313046    76A      0.322407  
      77A      0.329645    78A      0.386967    79A      0.407705  
      80A      0.428701    81A      0.436771    82A      0.450464  
      83A      0.472167    84A      0.482225    85A      0.524117  
      86A      0.535273    87A      0.561097    88A      0.576999  
      89A      0.585746    90A      0.598080    91A      0.605415  
      92A      0.618904    93A      0.628258    94A      0.637413  
      95A      0.650720    96A      0.660429    97A      0.664024  
      98A      0.679633    99A      0.704431   100A      0.709605  
     101A      0.735528   102A      0.746087   103A      0.779985  
     104A      0.789914   105A      0.804959   106A      0.816535  
     107A      0.825497   108A      0.840792   109A      0.848742  
     110A      0.876575   111A      0.887482   112A      0.901267  
     113A      0.933271   114A      0.954599   115A      0.957867  
     116A      0.967902   117A      0.994174   118A      1.003464  
     119A      1.030333   120A      1.040321   121A      1.045429  
     122A      1.054637   123A      1.072512   124A      1.090578  
     125A      1.103851   126A      1.114921   127A      1.121877  
     128A      1.129745   129A      1.130249   130A      1.139993  
     131A      1.142376   132A      1.151413   133A      1.160604  
     134A      1.178579   135A      1.188819   136A      1.203082  
     137A      1.216410   138A      1.229846   139A      1.247238  
     140A      1.261553   141A      1.285923   142A      1.293745  
     143A      1.305151   144A      1.327385   145A      1.343718  
     146A      1.354024   147A      1.362757   148A      1.406415  
     149A      1.412054   150A      1.422638   151A      1.450805  
     152A      1.456714   153A      1.473931   154A      1.552873  
     155A      1.572785   156A      1.595747   157A      1.619571  
     158A      1.660671   159A      1.671147   160A      1.680468  
     161A      1.693648   162A      1.739992   163A      1.762201  
     164A      1.779173   165A      1.795784   166A      1.805057  
     167A      1.827745   168A      1.891621   169A      1.895169  
     170A      1.957908   171A      2.008817   172A      2.032278  
     173A      2.041209   174A      2.055821   175A      2.080092  
     176A      2.084975   177A      2.120604   178A      2.130040  
     179A      2.184668   180A      2.204403   181A      2.225685  
     182A      2.245181   183A      2.265083   184A      2.330985  
     185A      2.347219   186A      2.354256   187A      2.376374  
     188A      2.385415   189A      2.414181   190A      2.423521  
     191A      2.452206   192A      2.483479   193A      2.521351  
     194A      2.581509   195A      2.583653   196A      2.598806  
     197A      2.643109   198A      2.658361   199A      2.747601  
     200A      2.815289   201A      2.839345   202A      2.882000  
     203A      2.892762   204A      2.973586   205A      2.993777  
     206A      3.018415   207A      3.071376   208A      3.075064  
     209A      3.084296   210A      3.113587   211A      3.169794  
     212A      3.186495   213A      3.260330   214A      3.374220  
     215A      3.400817   216A      3.489849   217A      3.511461  
     218A      3.710332   219A      4.234792   220A      4.426342  
     221A      4.452709   222A      4.479726   223A      4.518328  
     224A      4.586938   225A      4.632559   226A      4.667129  
     227A      4.725480   228A      4.749497   229A      4.803020  
     230A      4.863502   231A      4.951561   232A      5.143772  

    Final Occupation by Irrep:
              A 
    DOCC [    64 ]

  Energy converged.

  @DF-RHF Final Energy: -1908.87995652299151

   => Energetics <=

    Nuclear Repulsion Energy =           1187.2788510549498824
    One-Electron Energy =               -4992.2960315564960183
    Two-Electron Energy =                1896.1372239785546299
    Total Energy =                      -1908.8799565229915061



Properties will be evaluated at   0.000000,   0.000000,   0.000000 [a0]

Properties computed using the SCF density matrix

  Nuclear Dipole Moment: [e a0]
     X:     5.6075      Y:     9.8579      Z:     5.4943

  Electronic Dipole Moment: [e a0]
     X:    -5.5535      Y:    -9.5351      Z:    -5.4386

  Dipole Moment: [e a0]
     X:     0.0540      Y:     0.3228      Z:     0.0557     Total:     0.3320

  Dipole Moment: [D]
     X:     0.1373      Y:     0.8204      Z:     0.1417     Total:     0.8437


*** tstop() called on wr53 at Wed Sep 26 15:53:40 2018
Module time:
	user time   =      90.72 seconds =       1.51 minutes
	system time =       6.70 seconds =       0.11 minutes
	total time  =         13 seconds =       0.22 minutes
Total time:
	user time   =      90.72 seconds =       1.51 minutes
	system time =       6.70 seconds =       0.11 minutes
	total time  =         13 seconds =       0.22 minutes

*** tstart() called on wr53
*** at Wed Sep 26 15:53:40 2018


         ------------------------------------------------------------
                                   SCF GRAD                          
                          Rob Parrish, Justin Turney,                
                       Andy Simmonett, and Alex Sokolov              
         ------------------------------------------------------------

  ==> Geometry <==

    Molecular point group: c1
    Full point group: C1

    Geometry (in Angstrom), charge = 0, multiplicity = 1:

       Center              X                  Y                   Z               Mass       
    ------------   -----------------  -----------------  -----------------  -----------------
         C            1.243384873651    -0.553327042251    -0.656822911851    12.000000000000
         O            1.246781758555     1.784310747571    -0.148627178379    15.994914619560
         C            0.577645351133     0.619210161727    -0.322205407311    12.000000000000
         C           -0.801771232164     0.605460556206    -0.231643198010    12.000000000000
         H           -1.311145021654     1.515926452256     0.010187939104     1.007825032070
         O            1.373930742304     2.936778574616     3.210659736837    15.994914619560
         C           -1.515549413650    -0.558856391206    -0.455032487882    12.000000000000
         C           -0.844238712188    -1.729162790057    -0.774650703247    12.000000000000
         C            0.536163016532    -1.718098713638    -0.876601108753    12.000000000000
         H            1.056651670815    -2.618891866566    -1.134461325835     1.007825032070
         C            1.858960536947     2.017172498748     1.088859728105    12.000000000000
         H            2.726039462849     2.635300003023     0.902858621287     1.007825032070
         H            2.197054903682     1.102349504016     1.555888785795     1.007825032070
         C            1.001154442913     2.753348082595     2.099261950920    12.000000000000
         O           -0.158755063523     3.187841927737     1.637011993567    15.994914619560
         H           -0.602582810620     3.649642431175     2.343035899296     1.007825032070
         CL          -1.678152192567    -3.219187924273    -1.062136931510    34.968852682000
         CL           2.970172275707    -0.569093931528    -0.825544467258    34.968852682000
         CL          -3.240772045718    -0.503112527800    -0.323460442306    34.968852682000

  Nuclear repulsion = 1187.278851054949882

  ==> Basis Set <==

  Basis Set: 6-31G(D)
    Blend: 6-31G(D)
    Number of shells: 100
    Number of basis function: 232
    Number of Cartesian functions: 232
    Spherical Harmonics?: false
    Max angular momentum: 2

  ==> DFJKGrad: Density-Fitted SCF Gradients <==

    Gradient:                    1
    J tasked:                  Yes
    K tasked:                  Yes
    wK tasked:                  No
    OpenMP threads:             16
    Integrals threads:          16
    Memory (MB):             78678
    Schwarz Cutoff:          0E+00
    Fitting Condition:       1E-12

   => Auxiliary Basis Set <=

  Basis Set: (6-31G(D) AUX)
    Blend: CC-PVDZ-JKFIT
    Number of shells: 417
    Number of basis function: 1406
    Number of Cartesian functions: 1406
    Spherical Harmonics?: false
    Max angular momentum: 3


  -Total Gradient:
     Atom            X                  Y                   Z
    ------   -----------------  -----------------  -----------------
       1        0.000000191497     0.000001720407     0.000000504896
       2       -0.000000125938    -0.000000547172     0.000001725310
       3        0.000000763430    -0.000001650944    -0.000004332585
       4       -0.000001465780    -0.000001934629    -0.000001313240
       5       -0.000000006003     0.000000339033     0.000000150740
       6        0.000000125455     0.000000830706     0.000001311663
       7        0.000000609484     0.000000212704     0.000003306834
       8        0.000000727488    -0.000000028096    -0.000002421884
       9       -0.000001507518    -0.000000044753     0.000000617771
      10        0.000000357339    -0.000000147314     0.000000251863
      11        0.000000772936     0.000000714934    -0.000001678118
      12        0.000000153535    -0.000000086603     0.000000739565
      13        0.000000075021    -0.000000003189     0.000000294156
      14        0.000001356918    -0.000001550451    -0.000000037614
      15       -0.000000759286     0.000001439513     0.000000463591
      16       -0.000000623098     0.000000296296     0.000000001003
      17        0.000000323805     0.000000514250     0.000000456085
      18       -0.000000446116    -0.000000202330     0.000000376730
      19       -0.000000523171     0.000000127619    -0.000000416730


*** tstop() called on wr53 at Wed Sep 26 15:53:49 2018
Module time:
	user time   =      66.50 seconds =       1.11 minutes
	system time =       2.07 seconds =       0.03 minutes
	total time  =          9 seconds =       0.15 minutes
Total time:
	user time   =     157.34 seconds =       2.62 minutes
	system time =       8.77 seconds =       0.15 minutes
	total time  =         22 seconds =       0.37 minutes

  Based on options and gradient (rms=1.37E-06), recommend projecting translations and projecting rotations.
hessian() will perform frequency computation by finite difference of analytic gradients.

-------------------------------------------------------------

  Using finite-differences of gradients to determine vibrational frequencies and 
  normal modes.  Resulting frequencies are only valid at stationary points.
	Generating geometries for use with 3-point formula.
	Displacement size will be 5.00e-03.
	Number of atoms is 19.
	Number of irreps is 1.
	Number of SALCS is 51.
	Translations projected? 1. Rotations projected? 1.
	Index of salcs per irrep:
	 1 :  0  1  2  3  4  5  6  7  8  9  10  11  12  13  14  15  16  17  18  19  20  21  22  23  24  25  26  27  28  29  30  31  32  33  34  35  36  37  38  39  40  41  42  43  44  45  46  47  48  49  50 
	Number of SALC's per irrep:
		 Irrep 1: 51
	Number of geometries (including reference) is 103.
	Number of displacements per irrep:
	  Irrep 1: 102

  //>>>>>>>>>>>>>>>>>>>>>>>>>>>>>>>>>>>//
  //   Loading displacement 1 of 103   //
  //<<<<<<<<<<<<<<<<<<<<<<<<<<<<<<<<<<<//
gradient() will perform analytic gradient computation.

*** tstart() called on wr53
*** at Wed Sep 26 15:53:49 2018

   => Loading Basis Set <=

    Name: 6-31G(D)
    Role: ORBITAL
    Keyword: BASIS
    atoms 1, 3-4, 7-9, 11, 14 entry C          line   111 file /usr/local/hpc1/software_molmod/psi4/psi4conda/share/psi4/basis/6-31g_d_.gbs 
    atoms 2, 6, 15            entry O          line   145 file /usr/local/hpc1/software_molmod/psi4/psi4conda/share/psi4/basis/6-31g_d_.gbs 
    atoms 5, 10, 12-13, 16    entry H          line    44 file /usr/local/hpc1/software_molmod/psi4/psi4conda/share/psi4/basis/6-31g_d_.gbs 
    atoms 17-19               entry CL         line   340 file /usr/local/hpc1/software_molmod/psi4/psi4conda/share/psi4/basis/6-31g_d_.gbs 


         ---------------------------------------------------------
                                   SCF
            by Justin Turney, Rob Parrish, Andy Simmonett
                             and Daniel Smith
                              RHF Reference
                       16 Threads, 104904 MiB Core
         ---------------------------------------------------------

  ==> Geometry <==

    Molecular point group: c1
    Full point group: C1

    Geometry (in Angstrom), charge = 0, multiplicity = 1:

       Center              X                  Y                   Z               Mass       
    ------------   -----------------  -----------------  -----------------  -----------------
         C            1.242641150394    -0.553325912158    -0.656816993872    12.000000000000
         O            1.246816890262     1.784312398175    -0.148623617480    15.994914619560
         C            0.577682914009     0.619210669429    -0.322203547012    12.000000000000
         C           -0.801734039570     0.605459162756    -0.231647266381    12.000000000000
         H           -1.311110186361     1.515924568200     0.010180752578     1.007825032070
         O            1.373949736846     2.936783817186     3.210662676235    15.994914619560
         C           -1.515509576430    -0.558859042595    -0.455038449969    12.000000000000
         C           -0.844195807128    -1.729164795788    -0.774652585915    12.000000000000
         C            0.536206344816    -1.718098828349    -0.876597055782    12.000000000000
         H            1.056697411479    -2.618891490874    -1.134454116640     1.007825032070
         C            1.858990001029     2.017176289378     1.088865690056    12.000000000000
         H            2.726068835142     2.635304857729     0.902867691535     1.007825032070
         H            2.197083677543     1.102354256975     1.555897132438     1.007825032070
         C            1.001178490459     2.753351658965     2.099263470477    12.000000000000
         O           -0.158729652346     3.187843359237     1.637008075328    15.994914619560
         H           -0.602561108269     3.649643937731     2.343029600484     1.007825032070
         CL          -1.678105896151    -3.219191426551    -1.062140894989    34.968852682000
         CL           2.970213723909    -0.569090477688    -0.825531094165    34.968852682000
         CL          -3.240732855860    -0.503117538367    -0.323473893325    34.968852682000

  Running in c1 symmetry.

  Rotational constants: A =      0.02123  B =      0.01041  C =      0.00744 [cm^-1]
  Rotational constants: A =    636.55750  B =    311.97182  C =    223.17622 [MHz]
  Nuclear repulsion = 1187.283198455545289

  Charge       = 0
  Multiplicity = 1
  Electrons    = 128
  Nalpha       = 64
  Nbeta        = 64

  ==> Algorithm <==

  SCF Algorithm Type is DF.
  DIIS enabled.
  MOM disabled.
  Fractional occupation disabled.
  Guess Type is SAD.
  Energy threshold   = 1.00e-08
  Density threshold  = 1.00e-08
  Integral threshold = 0.00e+00

  ==> Primary Basis <==

  Basis Set: 6-31G(D)
    Blend: 6-31G(D)
    Number of shells: 100
    Number of basis function: 232
    Number of Cartesian functions: 232
    Spherical Harmonics?: false
    Max angular momentum: 2

   => Loading Basis Set <=

    Name: (6-31G(D) AUX)
    Role: JKFIT
    Keyword: DF_BASIS_SCF
    atoms 1, 3-4, 7-9, 11, 14 entry C          line   121 file /usr/local/hpc1/software_molmod/psi4/psi4conda/share/psi4/basis/cc-pvdz-jkfit.gbs 
    atoms 2, 6, 15            entry O          line   221 file /usr/local/hpc1/software_molmod/psi4/psi4conda/share/psi4/basis/cc-pvdz-jkfit.gbs 
    atoms 5, 10, 12-13, 16    entry H          line    51 file /usr/local/hpc1/software_molmod/psi4/psi4conda/share/psi4/basis/cc-pvdz-jkfit.gbs 
    atoms 17-19               entry CL         line   667 file /usr/local/hpc1/software_molmod/psi4/psi4conda/share/psi4/basis/cc-pvdz-jkfit.gbs 

  ==> Pre-Iterations <==

   -------------------------------------------------------
    Irrep   Nso     Nmo     Nalpha   Nbeta   Ndocc  Nsocc
   -------------------------------------------------------
     A        232     232       0       0       0       0
   -------------------------------------------------------
    Total     232     232      64      64      64       0
   -------------------------------------------------------

  ==> Integral Setup <==

  ==> DiskDFJK: Density-Fitted J/K Matrices <==

    J tasked:                  Yes
    K tasked:                  Yes
    wK tasked:                  No
    OpenMP threads:             16
    Integrals threads:          16
    Memory (MB):             78678
    Algorithm:                Core
    Integral Cache:           NONE
    Schwarz Cutoff:          1E-12
    Fitting Condition:       1E-12

   => Auxiliary Basis Set <=

  Basis Set: (6-31G(D) AUX)
    Blend: CC-PVDZ-JKFIT
    Number of shells: 417
    Number of basis function: 1406
    Number of Cartesian functions: 1406
    Spherical Harmonics?: false
    Max angular momentum: 3

  Minimum eigenvalue in the overlap matrix is 3.6597138669E-04.
  Using Symmetric Orthogonalization.

  SCF Guess: Superposition of Atomic Densities via on-the-fly atomic UHF.

  ==> Iterations <==

                           Total Energy        Delta E     RMS |[F,P]|

   @DF-RHF iter   0: -1914.84126442817433   -1.91484e+03   6.59251e-02 
   @DF-RHF iter   1: -1908.48904311921638    6.35222e+00   6.98026e-03 
   @DF-RHF iter   2: -1908.79235424290619   -3.03311e-01   3.15423e-03 DIIS
   @DF-RHF iter   3: -1908.86353292753529   -7.11787e-02   1.31821e-03 DIIS
   @DF-RHF iter   4: -1908.87846345843968   -1.49305e-02   3.49362e-04 DIIS
   @DF-RHF iter   5: -1908.87969960715395   -1.23615e-03   1.47016e-04 DIIS
   @DF-RHF iter   6: -1908.87992721512478   -2.27608e-04   3.63571e-05 DIIS
   @DF-RHF iter   7: -1908.87995350507708   -2.62900e-05   1.16596e-05 DIIS
   @DF-RHF iter   8: -1908.87995556824467   -2.06317e-06   3.45387e-06 DIIS
   @DF-RHF iter   9: -1908.87995578758091   -2.19336e-07   1.25813e-06 DIIS
   @DF-RHF iter  10: -1908.87995581962014   -3.20392e-08   6.20019e-07 DIIS
   @DF-RHF iter  11: -1908.87995582445410   -4.83396e-09   2.28058e-07 DIIS
   @DF-RHF iter  12: -1908.87995582514350   -6.89397e-10   8.57017e-08 DIIS
   @DF-RHF iter  13: -1908.87995582524536   -1.01863e-10   2.69825e-08 DIIS
   @DF-RHF iter  14: -1908.87995582526969   -2.43290e-11   1.22083e-08 DIIS
   @DF-RHF iter  15: -1908.87995582527060   -9.09495e-13   4.78109e-09 DIIS

  ==> Post-Iterations <==

    Orbital Energies [Eh]
    ---------------------

    Doubly Occupied:                                                      

       1A   -104.850236     2A   -104.846836     3A   -104.846566  
       4A    -20.639349     5A    -20.616771     6A    -20.571773  
       7A    -11.404872     8A    -11.337763     9A    -11.335862  
      10A    -11.333447    11A    -11.329335    12A    -11.323568  
      13A    -11.283588    14A    -11.272973    15A    -10.583266  
      16A    -10.580099    17A    -10.579788    18A     -8.052706  
      19A     -8.049543    20A     -8.049261    21A     -8.049234  
      22A     -8.049203    23A     -8.046018    24A     -8.045994  
      25A     -8.045697    26A     -8.045694    27A     -1.502448  
      28A     -1.448567    29A     -1.390912    30A     -1.244225  
      31A     -1.187186    32A     -1.154097    33A     -1.114712  
      34A     -1.055533    35A     -1.021169    36A     -0.981944  
      37A     -0.882671    38A     -0.869774    39A     -0.825364  
      40A     -0.751150    41A     -0.740089    42A     -0.720020  
      43A     -0.709912    44A     -0.685372    45A     -0.672231  
      46A     -0.652420    47A     -0.639906    48A     -0.613251  
      49A     -0.609195    50A     -0.593460    51A     -0.575227  
      52A     -0.564167    53A     -0.549937    54A     -0.530516  
      55A     -0.514760    56A     -0.500686    57A     -0.495766  
      58A     -0.485568    59A     -0.474852    60A     -0.460825  
      61A     -0.459179    62A     -0.451466    63A     -0.366151  
      64A     -0.346865  

    Virtual:                                                              

      65A      0.096541    66A      0.105211    67A      0.148815  
      68A      0.171885    69A      0.202731    70A      0.209841  
      71A      0.234113    72A      0.251298    73A      0.287794  
      74A      0.294500    75A      0.313058    76A      0.322405  
      77A      0.329680    78A      0.386959    79A      0.407709  
      80A      0.428731    81A      0.436882    82A      0.450477  
      83A      0.472223    84A      0.482223    85A      0.524171  
      86A      0.535276    87A      0.561114    88A      0.577060  
      89A      0.585746    90A      0.598065    91A      0.605432  
      92A      0.618888    93A      0.628263    94A      0.637463  
      95A      0.650715    96A      0.660427    97A      0.663998  
      98A      0.679675    99A      0.704415   100A      0.709527  
     101A      0.735484   102A      0.746074   103A      0.779952  
     104A      0.789900   105A      0.804949   106A      0.816507  
     107A      0.825486   108A      0.840820   109A      0.848739  
     110A      0.876560   111A      0.887489   112A      0.901293  
     113A      0.933252   114A      0.954598   115A      0.957857  
     116A      0.967928   117A      0.994076   118A      1.003500  
     119A      1.030408   120A      1.040330   121A      1.045420  
     122A      1.054576   123A      1.072522   124A      1.090580  
     125A      1.103828   126A      1.114937   127A      1.121862  
     128A      1.129765   129A      1.130243   130A      1.139988  
     131A      1.142400   132A      1.151449   133A      1.160631  
     134A      1.178578   135A      1.188924   136A      1.203069  
     137A      1.216418   138A      1.229865   139A      1.247240  
     140A      1.261543   141A      1.285911   142A      1.293661  
     143A      1.305163   144A      1.327302   145A      1.343692  
     146A      1.354029   147A      1.362725   148A      1.406440  
     149A      1.412037   150A      1.422624   151A      1.450740  
     152A      1.456683   153A      1.474073   154A      1.552829  
     155A      1.572792   156A      1.595741   157A      1.619567  
     158A      1.660654   159A      1.671168   160A      1.680432  
     161A      1.693596   162A      1.739973   163A      1.762187  
     164A      1.779179   165A      1.795757   166A      1.805058  
     167A      1.827738   168A      1.891580   169A      1.895194  
     170A      1.957891   171A      2.008792   172A      2.032571  
     173A      2.041236   174A      2.055867   175A      2.080117  
     176A      2.084996   177A      2.120586   178A      2.130083  
     179A      2.184535   180A      2.204360   181A      2.225645  
     182A      2.245124   183A      2.265102   184A      2.330936  
     185A      2.347223   186A      2.354362   187A      2.376412  
     188A      2.385486   189A      2.414276   190A      2.423568  
     191A      2.452321   192A      2.483534   193A      2.521350  
     194A      2.581647   195A      2.583854   196A      2.598728  
     197A      2.643133   198A      2.658344   199A      2.747593  
     200A      2.815351   201A      2.839320   202A      2.882084  
     203A      2.892802   204A      2.973791   205A      2.993844  
     206A      3.018447   207A      3.071572   208A      3.075244  
     209A      3.084547   210A      3.113682   211A      3.169878  
     212A      3.186396   213A      3.260304   214A      3.374189  
     215A      3.400863   216A      3.490026   217A      3.511445  
     218A      3.710623   219A      4.234827   220A      4.426319  
     221A      4.452838   222A      4.479775   223A      4.518352  
     224A      4.586929   225A      4.632634   226A      4.667144  
     227A      4.725476   228A      4.749533   229A      4.802942  
     230A      4.863594   231A      4.951579   232A      5.144027  

    Final Occupation by Irrep:
              A 
    DOCC [    64 ]

  Energy converged.

  @DF-RHF Final Energy: -1908.87995582527060

   => Energetics <=

    Nuclear Repulsion Energy =           1187.2831984555452891
    One-Electron Energy =               -4992.3042793909407919
    Two-Electron Energy =                1896.1411251101251310
    Total Energy =                      -1908.8799558252705992



Properties will be evaluated at   0.000000,   0.000000,   0.000000 [a0]

Properties computed using the SCF density matrix

  Nuclear Dipole Moment: [e a0]
     X:     5.6076      Y:     9.8579      Z:     5.4943

  Electronic Dipole Moment: [e a0]
     X:    -5.5551      Y:    -9.5352      Z:    -5.4383

  Dipole Moment: [e a0]
     X:     0.0525      Y:     0.3227      Z:     0.0560     Total:     0.3317

  Dipole Moment: [D]
     X:     0.1333      Y:     0.8202      Z:     0.1422     Total:     0.8431


*** tstop() called on wr53 at Wed Sep 26 15:54:03 2018
Module time:
	user time   =      92.57 seconds =       1.54 minutes
	system time =       6.13 seconds =       0.10 minutes
	total time  =         14 seconds =       0.23 minutes
Total time:
	user time   =     250.03 seconds =       4.17 minutes
	system time =      14.90 seconds =       0.25 minutes
	total time  =         36 seconds =       0.60 minutes

*** tstart() called on wr53
*** at Wed Sep 26 15:54:03 2018


         ------------------------------------------------------------
                                   SCF GRAD                          
                          Rob Parrish, Justin Turney,                
                       Andy Simmonett, and Alex Sokolov              
         ------------------------------------------------------------

  ==> Geometry <==

    Molecular point group: c1
    Full point group: C1

    Geometry (in Angstrom), charge = 0, multiplicity = 1:

       Center              X                  Y                   Z               Mass       
    ------------   -----------------  -----------------  -----------------  -----------------
         C            1.242641150394    -0.553325912158    -0.656816993872    12.000000000000
         O            1.246816890262     1.784312398175    -0.148623617480    15.994914619560
         C            0.577682914009     0.619210669429    -0.322203547012    12.000000000000
         C           -0.801734039570     0.605459162756    -0.231647266381    12.000000000000
         H           -1.311110186361     1.515924568200     0.010180752578     1.007825032070
         O            1.373949736846     2.936783817186     3.210662676235    15.994914619560
         C           -1.515509576430    -0.558859042595    -0.455038449969    12.000000000000
         C           -0.844195807128    -1.729164795788    -0.774652585915    12.000000000000
         C            0.536206344816    -1.718098828349    -0.876597055782    12.000000000000
         H            1.056697411479    -2.618891490874    -1.134454116640     1.007825032070
         C            1.858990001029     2.017176289378     1.088865690056    12.000000000000
         H            2.726068835142     2.635304857729     0.902867691535     1.007825032070
         H            2.197083677543     1.102354256975     1.555897132438     1.007825032070
         C            1.001178490459     2.753351658965     2.099263470477    12.000000000000
         O           -0.158729652346     3.187843359237     1.637008075328    15.994914619560
         H           -0.602561108269     3.649643937731     2.343029600484     1.007825032070
         CL          -1.678105896151    -3.219191426551    -1.062140894989    34.968852682000
         CL           2.970213723909    -0.569090477688    -0.825531094165    34.968852682000
         CL          -3.240732855860    -0.503117538367    -0.323473893325    34.968852682000

  Nuclear repulsion = 1187.283198455545289

  ==> Basis Set <==

  Basis Set: 6-31G(D)
    Blend: 6-31G(D)
    Number of shells: 100
    Number of basis function: 232
    Number of Cartesian functions: 232
    Spherical Harmonics?: false
    Max angular momentum: 2

  ==> DFJKGrad: Density-Fitted SCF Gradients <==

    Gradient:                    1
    J tasked:                  Yes
    K tasked:                  Yes
    wK tasked:                  No
    OpenMP threads:             16
    Integrals threads:          16
    Memory (MB):             78678
    Schwarz Cutoff:          0E+00
    Fitting Condition:       1E-12

   => Auxiliary Basis Set <=

  Basis Set: (6-31G(D) AUX)
    Blend: CC-PVDZ-JKFIT
    Number of shells: 417
    Number of basis function: 1406
    Number of Cartesian functions: 1406
    Spherical Harmonics?: false
    Max angular momentum: 3


  -Total Gradient:
     Atom            X                  Y                   Z
    ------   -----------------  -----------------  -----------------
       1       -0.000940867396    -0.000034455543     0.000054870633
       2       -0.000007497263     0.000044804877     0.000017766333
       3        0.000278376771    -0.000209476588    -0.000066274639
       4        0.000036464753    -0.000041550647    -0.000014623016
       5        0.000007720502     0.000001594299    -0.000000791517
       6        0.000000404544     0.000001508208     0.000003443749
       7        0.000001860709    -0.000000313446     0.000003288951
       8        0.000044032726     0.000041900748     0.000003360852
       9        0.000295240151     0.000217258902     0.000038010371
      10       -0.000020043957    -0.000024993827    -0.000004902643
      11       -0.000005907856     0.000004666584    -0.000010718746
      12        0.000000542339     0.000001252869     0.000001762130
      13       -0.000001280786    -0.000001350357     0.000002333020
      14        0.000001138937    -0.000002509400    -0.000000249311
      15        0.000000412937     0.000001713721     0.000000794600
      16       -0.000000392624    -0.000000060829    -0.000000028189
      17        0.000003403928    -0.000001138547    -0.000000853096
      18        0.000306717928     0.000000421639    -0.000026975664
      19       -0.000000326410     0.000000727291    -0.000000213794


*** tstop() called on wr53 at Wed Sep 26 15:54:11 2018
Module time:
	user time   =      61.32 seconds =       1.02 minutes
	system time =       2.01 seconds =       0.03 minutes
	total time  =          8 seconds =       0.13 minutes
Total time:
	user time   =     311.38 seconds =       5.19 minutes
	system time =      16.91 seconds =       0.28 minutes
	total time  =         44 seconds =       0.73 minutes

  //>>>>>>>>>>>>>>>>>>>>>>>>>>>>>>>>>>>//
  //   Loading displacement 2 of 103   //
  //<<<<<<<<<<<<<<<<<<<<<<<<<<<<<<<<<<<//
gradient() will perform analytic gradient computation.

*** tstart() called on wr53
*** at Wed Sep 26 15:54:11 2018

   => Loading Basis Set <=

    Name: 6-31G(D)
    Role: ORBITAL
    Keyword: BASIS
    atoms 1, 3-4, 7-9, 11, 14 entry C          line   111 file /usr/local/hpc1/software_molmod/psi4/psi4conda/share/psi4/basis/6-31g_d_.gbs 
    atoms 2, 6, 15            entry O          line   145 file /usr/local/hpc1/software_molmod/psi4/psi4conda/share/psi4/basis/6-31g_d_.gbs 
    atoms 5, 10, 12-13, 16    entry H          line    44 file /usr/local/hpc1/software_molmod/psi4/psi4conda/share/psi4/basis/6-31g_d_.gbs 
    atoms 17-19               entry CL         line   340 file /usr/local/hpc1/software_molmod/psi4/psi4conda/share/psi4/basis/6-31g_d_.gbs 


         ---------------------------------------------------------
                                   SCF
            by Justin Turney, Rob Parrish, Andy Simmonett
                             and Daniel Smith
                              RHF Reference
                       16 Threads, 104904 MiB Core
         ---------------------------------------------------------

  ==> Geometry <==

    Molecular point group: c1
    Full point group: C1

    Geometry (in Angstrom), charge = 0, multiplicity = 1:

       Center              X                  Y                   Z               Mass       
    ------------   -----------------  -----------------  -----------------  -----------------
         C            1.244128596907    -0.553328172343    -0.656828829830    12.000000000000
         O            1.246746626847     1.784309096967    -0.148630739278    15.994914619560
         C            0.577607788257     0.619209654025    -0.322207267610    12.000000000000
         C           -0.801808424758     0.605461949656    -0.231639129639    12.000000000000
         H           -1.311179856947     1.515928336312     0.010195125630     1.007825032070
         O            1.373911747762     2.936773332046     3.210656797439    15.994914619560
         C           -1.515589250870    -0.558853739816    -0.455026525795    12.000000000000
         C           -0.844281617249    -1.729160784326    -0.774648820578    12.000000000000
         C            0.536119688248    -1.718098598927    -0.876605161723    12.000000000000
         H            1.056605930151    -2.618892242258    -1.134468535030     1.007825032070
         C            1.858931072865     2.017168708118     1.088853766154    12.000000000000
         H            2.726010090556     2.635295148317     0.902849551039     1.007825032070
         H            2.197026129821     1.102344751058     1.555880439152     1.007825032070
         C            1.001130395367     2.753344506225     2.099260431363    12.000000000000
         O           -0.158780474700     3.187840496237     1.637015911806    15.994914619560
         H           -0.602604512971     3.649640924619     2.343042198108     1.007825032070
         CL          -1.678198488983    -3.219184421994    -1.062132968031    34.968852682000
         CL           2.970130827505    -0.569097385368    -0.825557840351    34.968852682000
         CL          -3.240811235576    -0.503107517233    -0.323446991287    34.968852682000

  Running in c1 symmetry.

  Rotational constants: A =      0.02123  B =      0.01041  C =      0.00744 [cm^-1]
  Rotational constants: A =    636.52042  B =    311.97182  C =    223.17155 [MHz]
  Nuclear repulsion = 1187.274516085223240

  Charge       = 0
  Multiplicity = 1
  Electrons    = 128
  Nalpha       = 64
  Nbeta        = 64

  ==> Algorithm <==

  SCF Algorithm Type is DF.
  DIIS enabled.
  MOM disabled.
  Fractional occupation disabled.
  Guess Type is SAD.
  Energy threshold   = 1.00e-08
  Density threshold  = 1.00e-08
  Integral threshold = 0.00e+00

  ==> Primary Basis <==

  Basis Set: 6-31G(D)
    Blend: 6-31G(D)
    Number of shells: 100
    Number of basis function: 232
    Number of Cartesian functions: 232
    Spherical Harmonics?: false
    Max angular momentum: 2

   => Loading Basis Set <=

    Name: (6-31G(D) AUX)
    Role: JKFIT
    Keyword: DF_BASIS_SCF
    atoms 1, 3-4, 7-9, 11, 14 entry C          line   121 file /usr/local/hpc1/software_molmod/psi4/psi4conda/share/psi4/basis/cc-pvdz-jkfit.gbs 
    atoms 2, 6, 15            entry O          line   221 file /usr/local/hpc1/software_molmod/psi4/psi4conda/share/psi4/basis/cc-pvdz-jkfit.gbs 
    atoms 5, 10, 12-13, 16    entry H          line    51 file /usr/local/hpc1/software_molmod/psi4/psi4conda/share/psi4/basis/cc-pvdz-jkfit.gbs 
    atoms 17-19               entry CL         line   667 file /usr/local/hpc1/software_molmod/psi4/psi4conda/share/psi4/basis/cc-pvdz-jkfit.gbs 

  ==> Pre-Iterations <==

   -------------------------------------------------------
    Irrep   Nso     Nmo     Nalpha   Nbeta   Ndocc  Nsocc
   -------------------------------------------------------
     A        232     232       0       0       0       0
   -------------------------------------------------------
    Total     232     232      64      64      64       0
   -------------------------------------------------------

  ==> Integral Setup <==

  ==> DiskDFJK: Density-Fitted J/K Matrices <==

    J tasked:                  Yes
    K tasked:                  Yes
    wK tasked:                  No
    OpenMP threads:             16
    Integrals threads:          16
    Memory (MB):             78678
    Algorithm:                Core
    Integral Cache:           NONE
    Schwarz Cutoff:          1E-12
    Fitting Condition:       1E-12

   => Auxiliary Basis Set <=

  Basis Set: (6-31G(D) AUX)
    Blend: CC-PVDZ-JKFIT
    Number of shells: 417
    Number of basis function: 1406
    Number of Cartesian functions: 1406
    Spherical Harmonics?: false
    Max angular momentum: 3

  Minimum eigenvalue in the overlap matrix is 3.6676536009E-04.
  Using Symmetric Orthogonalization.

  SCF Guess: Superposition of Atomic Densities via on-the-fly atomic UHF.

  ==> Iterations <==

                           Total Energy        Delta E     RMS |[F,P]|

   @DF-RHF iter   0: -1915.51148986645603   -1.91551e+03   5.83876e-02 
   @DF-RHF iter   1: -1908.46426361614908    7.04723e+00   5.97925e-03 
   @DF-RHF iter   2: -1908.77232626551950   -3.08063e-01   3.83100e-03 DIIS
   @DF-RHF iter   3: -1908.86237227110541   -9.00460e-02   1.21552e-03 DIIS
   @DF-RHF iter   4: -1908.87752215028263   -1.51499e-02   3.45486e-04 DIIS
   @DF-RHF iter   5: -1908.87962386415870   -2.10171e-03   1.48322e-04 DIIS
   @DF-RHF iter   6: -1908.87991347112643   -2.89607e-04   4.37731e-05 DIIS
   @DF-RHF iter   7: -1908.87995160869582   -3.81376e-05   8.49508e-06 DIIS
   @DF-RHF iter   8: -1908.87995499927683   -3.39058e-06   4.48099e-06 DIIS
   @DF-RHF iter   9: -1908.87995563839513   -6.39118e-07   2.38439e-06 DIIS
   @DF-RHF iter  10: -1908.87995579210178   -1.53707e-07   1.15637e-06 DIIS
   @DF-RHF iter  11: -1908.87995581949099   -2.73892e-08   4.25952e-07 DIIS
   @DF-RHF iter  12: -1908.87995582253302   -3.04203e-09   1.51565e-07 DIIS
   @DF-RHF iter  13: -1908.87995582305075   -5.17730e-10   5.25251e-08 DIIS
   @DF-RHF iter  14: -1908.87995582315739   -1.06638e-10   3.01415e-08 DIIS
   @DF-RHF iter  15: -1908.87995582317080   -1.34150e-11   1.12784e-08 DIIS
   @DF-RHF iter  16: -1908.87995582317239   -1.59162e-12   5.03561e-09 DIIS

  ==> Post-Iterations <==

    Orbital Energies [Eh]
    ---------------------

    Doubly Occupied:                                                      

       1A   -104.850401     2A   -104.846808     3A   -104.846533  
       4A    -20.639334     5A    -20.616711     6A    -20.571760  
       7A    -11.404858     8A    -11.337776     9A    -11.335832  
      10A    -11.333395    11A    -11.329348    12A    -11.323553  
      13A    -11.283597    14A    -11.272925    15A    -10.583452  
      16A    -10.580072    17A    -10.579754    18A     -8.052896  
      19A     -8.049515    20A     -8.049447    21A     -8.049388  
      22A     -8.049200    23A     -8.045991    24A     -8.045967  
      25A     -8.045663    26A     -8.045659    27A     -1.502432  
      28A     -1.448526    29A     -1.390898    30A     -1.244123  
      31A     -1.187404    32A     -1.154055    33A     -1.114771  
      34A     -1.055433    35A     -1.021107    36A     -0.981828  
      37A     -0.882535    38A     -0.869748    39A     -0.825325  
      40A     -0.751067    41A     -0.740027    42A     -0.719993  
      43A     -0.709865    44A     -0.685349    45A     -0.672269  
      46A     -0.652287    47A     -0.639806    48A     -0.613266  
      49A     -0.609348    50A     -0.593396    51A     -0.575191  
      52A     -0.564301    53A     -0.549932    54A     -0.530673  
      55A     -0.514744    56A     -0.500657    57A     -0.495755  
      58A     -0.485558    59A     -0.474927    60A     -0.460789  
      61A     -0.459146    62A     -0.451426    63A     -0.366056  
      64A     -0.346720  

    Virtual:                                                              

      65A      0.096470    66A      0.105266    67A      0.148979  
      68A      0.171896    69A      0.203008    70A      0.209853  
      71A      0.234149    72A      0.251294    73A      0.287821  
      74A      0.294507    75A      0.313034    76A      0.322410  
      77A      0.329611    78A      0.386974    79A      0.407701  
      80A      0.428670    81A      0.436661    82A      0.450452  
      83A      0.472112    84A      0.482227    85A      0.524064  
      86A      0.535270    87A      0.561079    88A      0.576938  
      89A      0.585746    90A      0.598095    91A      0.605399  
      92A      0.618919    93A      0.628253    94A      0.637362  
      95A      0.650725    96A      0.660431    97A      0.664049  
      98A      0.679591    99A      0.704447   100A      0.709684  
     101A      0.735572   102A      0.746100   103A      0.780017  
     104A      0.789928   105A      0.804969   106A      0.816564  
     107A      0.825508   108A      0.840765   109A      0.848745  
     110A      0.876589   111A      0.887474   112A      0.901241  
     113A      0.933290   114A      0.954600   115A      0.957877  
     116A      0.967876   117A      0.994272   118A      1.003428  
     119A      1.030258   120A      1.040313   121A      1.045438  
     122A      1.054697   123A      1.072502   124A      1.090575  
     125A      1.103874   126A      1.114906   127A      1.121893  
     128A      1.129725   129A      1.130254   130A      1.139997  
     131A      1.142353   132A      1.151376   133A      1.160578  
     134A      1.178580   135A      1.188713   136A      1.203095  
     137A      1.216403   138A      1.229827   139A      1.247235  
     140A      1.261563   141A      1.285934   142A      1.293827  
     143A      1.305138   144A      1.327469   145A      1.343744  
     146A      1.354019   147A      1.362789   148A      1.406390  
     149A      1.412071   150A      1.422651   151A      1.450870  
     152A      1.456745   153A      1.473789   154A      1.552916  
     155A      1.572779   156A      1.595752   157A      1.619575  
     158A      1.660687   159A      1.671125   160A      1.680505  
     161A      1.693700   162A      1.740011   163A      1.762215  
     164A      1.779168   165A      1.795812   166A      1.805056  
     167A      1.827753   168A      1.891661   169A      1.895144  
     170A      1.957925   171A      2.008840   172A      2.031983  
     173A      2.041181   174A      2.055776   175A      2.080067  
     176A      2.084956   177A      2.120621   178A      2.129997  
     179A      2.184801   180A      2.204445   181A      2.225725  
     182A      2.245237   183A      2.265064   184A      2.331034  
     185A      2.347215   186A      2.354151   187A      2.376335  
     188A      2.385346   189A      2.414085   190A      2.423475  
     191A      2.452092   192A      2.483423   193A      2.521352  
     194A      2.581357   195A      2.583464   196A      2.598885  
     197A      2.643084   198A      2.658379   199A      2.747608  
     200A      2.815226   201A      2.839370   202A      2.881916  
     203A      2.892722   204A      2.973381   205A      2.993708  
     206A      3.018380   207A      3.071184   208A      3.074872  
     209A      3.084058   210A      3.113494   211A      3.169711  
     212A      3.186593   213A      3.260356   214A      3.374251  
     215A      3.400771   216A      3.489672   217A      3.511477  
     218A      3.710041   219A      4.234756   220A      4.426364  
     221A      4.452580   222A      4.479677   223A      4.518305  
     224A      4.586946   225A      4.632484   226A      4.667114  
     227A      4.725484   228A      4.749460   229A      4.803098  
     230A      4.863410   231A      4.951542   232A      5.143518  

    Final Occupation by Irrep:
              A 
    DOCC [    64 ]

  Energy converged.

  @DF-RHF Final Energy: -1908.87995582317239

   => Energetics <=

    Nuclear Repulsion Energy =           1187.2745160852232402
    One-Electron Energy =               -4992.2878045058569114
    Two-Electron Energy =                1896.1333325974612762
    Total Energy =                      -1908.8799558231723950



Properties will be evaluated at   0.000000,   0.000000,   0.000000 [a0]

Properties computed using the SCF density matrix

  Nuclear Dipole Moment: [e a0]
     X:     5.6075      Y:     9.8578      Z:     5.4943

  Electronic Dipole Moment: [e a0]
     X:    -5.5519      Y:    -9.5350      Z:    -5.4388

  Dipole Moment: [e a0]
     X:     0.0556      Y:     0.3228      Z:     0.0555     Total:     0.3322

  Dipole Moment: [D]
     X:     0.1413      Y:     0.8205      Z:     0.1411     Total:     0.8444


*** tstop() called on wr53 at Wed Sep 26 15:54:25 2018
Module time:
	user time   =      93.90 seconds =       1.57 minutes
	system time =       5.74 seconds =       0.10 minutes
	total time  =         14 seconds =       0.23 minutes
Total time:
	user time   =     405.38 seconds =       6.76 minutes
	system time =      22.66 seconds =       0.38 minutes
	total time  =         58 seconds =       0.97 minutes

*** tstart() called on wr53
*** at Wed Sep 26 15:54:25 2018


         ------------------------------------------------------------
                                   SCF GRAD                          
                          Rob Parrish, Justin Turney,                
                       Andy Simmonett, and Alex Sokolov              
         ------------------------------------------------------------

  ==> Geometry <==

    Molecular point group: c1
    Full point group: C1

    Geometry (in Angstrom), charge = 0, multiplicity = 1:

       Center              X                  Y                   Z               Mass       
    ------------   -----------------  -----------------  -----------------  -----------------
         C            1.244128596907    -0.553328172343    -0.656828829830    12.000000000000
         O            1.246746626847     1.784309096967    -0.148630739278    15.994914619560
         C            0.577607788257     0.619209654025    -0.322207267610    12.000000000000
         C           -0.801808424758     0.605461949656    -0.231639129639    12.000000000000
         H           -1.311179856947     1.515928336312     0.010195125630     1.007825032070
         O            1.373911747762     2.936773332046     3.210656797439    15.994914619560
         C           -1.515589250870    -0.558853739816    -0.455026525795    12.000000000000
         C           -0.844281617249    -1.729160784326    -0.774648820578    12.000000000000
         C            0.536119688248    -1.718098598927    -0.876605161723    12.000000000000
         H            1.056605930151    -2.618892242258    -1.134468535030     1.007825032070
         C            1.858931072865     2.017168708118     1.088853766154    12.000000000000
         H            2.726010090556     2.635295148317     0.902849551039     1.007825032070
         H            2.197026129821     1.102344751058     1.555880439152     1.007825032070
         C            1.001130395367     2.753344506225     2.099260431363    12.000000000000
         O           -0.158780474700     3.187840496237     1.637015911806    15.994914619560
         H           -0.602604512971     3.649640924619     2.343042198108     1.007825032070
         CL          -1.678198488983    -3.219184421994    -1.062132968031    34.968852682000
         CL           2.970130827505    -0.569097385368    -0.825557840351    34.968852682000
         CL          -3.240811235576    -0.503107517233    -0.323446991287    34.968852682000

  Nuclear repulsion = 1187.274516085223240

  ==> Basis Set <==

  Basis Set: 6-31G(D)
    Blend: 6-31G(D)
    Number of shells: 100
    Number of basis function: 232
    Number of Cartesian functions: 232
    Spherical Harmonics?: false
    Max angular momentum: 2

  ==> DFJKGrad: Density-Fitted SCF Gradients <==

    Gradient:                    1
    J tasked:                  Yes
    K tasked:                  Yes
    wK tasked:                  No
    OpenMP threads:             16
    Integrals threads:          16
    Memory (MB):             78678
    Schwarz Cutoff:          0E+00
    Fitting Condition:       1E-12

   => Auxiliary Basis Set <=

  Basis Set: (6-31G(D) AUX)
    Blend: CC-PVDZ-JKFIT
    Number of shells: 417
    Number of basis function: 1406
    Number of Cartesian functions: 1406
    Spherical Harmonics?: false
    Max angular momentum: 3


  -Total Gradient:
     Atom            X                  Y                   Z
    ------   -----------------  -----------------  -----------------
       1        0.000942462421     0.000037364690    -0.000054053109
       2        0.000007290859    -0.000045899231    -0.000014321142
       3       -0.000276605493     0.000205866867     0.000057476097
       4       -0.000039408444     0.000037374545     0.000011938183
       5       -0.000007869999    -0.000000702806     0.000001150042
       6       -0.000000126766     0.000000176354    -0.000000681385
       7       -0.000000667062     0.000000522251     0.000003264490
       8       -0.000042501341    -0.000041881515    -0.000008222107
       9       -0.000298044822    -0.000216437664    -0.000036611923
      10        0.000020712974     0.000024571649     0.000005387817
      11        0.000007421036    -0.000002931575     0.000007424988
      12       -0.000000168467    -0.000001396900    -0.000000309144
      13        0.000001451918     0.000001224522    -0.000001709714
      14        0.000001586379    -0.000000690654     0.000000060350
      15       -0.000001950598     0.000001124693     0.000000051340
      16       -0.000000892610     0.000000684860     0.000000083258
      17       -0.000002746331     0.000002221464     0.000001776241
      18       -0.000309169550    -0.000000770344     0.000027890556
      19       -0.000000774178    -0.000000421266    -0.000000594782


*** tstop() called on wr53 at Wed Sep 26 15:54:34 2018
Module time:
	user time   =      68.69 seconds =       1.14 minutes
	system time =       1.98 seconds =       0.03 minutes
	total time  =          9 seconds =       0.15 minutes
Total time:
	user time   =     474.15 seconds =       7.90 minutes
	system time =      24.65 seconds =       0.41 minutes
	total time  =         67 seconds =       1.12 minutes

  //>>>>>>>>>>>>>>>>>>>>>>>>>>>>>>>>>>>//
  //   Loading displacement 3 of 103   //
  //<<<<<<<<<<<<<<<<<<<<<<<<<<<<<<<<<<<//
gradient() will perform analytic gradient computation.

*** tstart() called on wr53
*** at Wed Sep 26 15:54:34 2018

   => Loading Basis Set <=

    Name: 6-31G(D)
    Role: ORBITAL
    Keyword: BASIS
    atoms 1, 3-4, 7-9, 11, 14 entry C          line   111 file /usr/local/hpc1/software_molmod/psi4/psi4conda/share/psi4/basis/6-31g_d_.gbs 
    atoms 2, 6, 15            entry O          line   145 file /usr/local/hpc1/software_molmod/psi4/psi4conda/share/psi4/basis/6-31g_d_.gbs 
    atoms 5, 10, 12-13, 16    entry H          line    44 file /usr/local/hpc1/software_molmod/psi4/psi4conda/share/psi4/basis/6-31g_d_.gbs 
    atoms 17-19               entry CL         line   340 file /usr/local/hpc1/software_molmod/psi4/psi4conda/share/psi4/basis/6-31g_d_.gbs 


         ---------------------------------------------------------
                                   SCF
            by Justin Turney, Rob Parrish, Andy Simmonett
                             and Daniel Smith
                              RHF Reference
                       16 Threads, 104904 MiB Core
         ---------------------------------------------------------

  ==> Geometry <==

    Molecular point group: c1
    Full point group: C1

    Geometry (in Angstrom), charge = 0, multiplicity = 1:

       Center              X                  Y                   Z               Mass       
    ------------   -----------------  -----------------  -----------------  -----------------
         C            1.243384873651    -0.554065666945    -0.656832445652    12.000000000000
         O            1.246767350460     1.784358659188    -0.148621427373    15.994914619560
         C            0.577639101348     0.619254050048    -0.322204100855    12.000000000000
         C           -0.801776945328     0.605493215611    -0.231635422742    12.000000000000
         H           -1.311156605213     1.515953601178     0.010204095763     1.007825032070
         O            1.373923420621     2.936805478488     3.210672426733    15.994914619560
         C           -1.515547211386    -0.558827773275    -0.455028939774    12.000000000000
         C           -0.844229005860    -1.729126903858    -0.774658007283    12.000000000000
         C            0.536172152798    -1.718051516386    -0.876614903864    12.000000000000
         H            1.056666526679    -2.618838968211    -1.134483491873     1.007825032070
         C            1.858950217313     2.017217030692     1.088864092533    12.000000000000
         H            2.726023492683     2.635352438140     0.902862908893     1.007825032070
         H            2.197053858507     1.102393585945     1.555885554707     1.007825032070
         C            1.001143251148     2.753379386765     2.099275212641    12.000000000000
         O           -0.158771803393     3.187867313946     1.637033614363    15.994914619560
         H           -0.602599754271     3.649659773937     2.343062653097     1.007825032070
         CL          -1.678132364169    -3.219156586320    -1.062150023407    34.968852682000
         CL           2.970172795209    -0.569028300772    -0.825562314740    34.968852682000
         CL          -3.240769647678    -0.503098073589    -0.323448326288    34.968852682000

  Running in c1 symmetry.

  Rotational constants: A =      0.02123  B =      0.01041  C =      0.00744 [cm^-1]
  Rotational constants: A =    636.53027  B =    311.97220  C =    223.17270 [MHz]
  Nuclear repulsion = 1187.274368959331241

  Charge       = 0
  Multiplicity = 1
  Electrons    = 128
  Nalpha       = 64
  Nbeta        = 64

  ==> Algorithm <==

  SCF Algorithm Type is DF.
  DIIS enabled.
  MOM disabled.
  Fractional occupation disabled.
  Guess Type is SAD.
  Energy threshold   = 1.00e-08
  Density threshold  = 1.00e-08
  Integral threshold = 0.00e+00

  ==> Primary Basis <==

  Basis Set: 6-31G(D)
    Blend: 6-31G(D)
    Number of shells: 100
    Number of basis function: 232
    Number of Cartesian functions: 232
    Spherical Harmonics?: false
    Max angular momentum: 2

   => Loading Basis Set <=

    Name: (6-31G(D) AUX)
    Role: JKFIT
    Keyword: DF_BASIS_SCF
    atoms 1, 3-4, 7-9, 11, 14 entry C          line   121 file /usr/local/hpc1/software_molmod/psi4/psi4conda/share/psi4/basis/cc-pvdz-jkfit.gbs 
    atoms 2, 6, 15            entry O          line   221 file /usr/local/hpc1/software_molmod/psi4/psi4conda/share/psi4/basis/cc-pvdz-jkfit.gbs 
    atoms 5, 10, 12-13, 16    entry H          line    51 file /usr/local/hpc1/software_molmod/psi4/psi4conda/share/psi4/basis/cc-pvdz-jkfit.gbs 
    atoms 17-19               entry CL         line   667 file /usr/local/hpc1/software_molmod/psi4/psi4conda/share/psi4/basis/cc-pvdz-jkfit.gbs 

  ==> Pre-Iterations <==

   -------------------------------------------------------
    Irrep   Nso     Nmo     Nalpha   Nbeta   Ndocc  Nsocc
   -------------------------------------------------------
     A        232     232       0       0       0       0
   -------------------------------------------------------
    Total     232     232      64      64      64       0
   -------------------------------------------------------

  ==> Integral Setup <==

  ==> DiskDFJK: Density-Fitted J/K Matrices <==

    J tasked:                  Yes
    K tasked:                  Yes
    wK tasked:                  No
    OpenMP threads:             16
    Integrals threads:          16
    Memory (MB):             78678
    Algorithm:                Core
    Integral Cache:           NONE
    Schwarz Cutoff:          1E-12
    Fitting Condition:       1E-12

   => Auxiliary Basis Set <=

  Basis Set: (6-31G(D) AUX)
    Blend: CC-PVDZ-JKFIT
    Number of shells: 417
    Number of basis function: 1406
    Number of Cartesian functions: 1406
    Spherical Harmonics?: false
    Max angular momentum: 3

  Minimum eigenvalue in the overlap matrix is 3.6635298188E-04.
  Using Symmetric Orthogonalization.

  SCF Guess: Superposition of Atomic Densities via on-the-fly atomic UHF.

  ==> Iterations <==

                           Total Energy        Delta E     RMS |[F,P]|

   @DF-RHF iter   0: -1914.68557908133107   -1.91469e+03   3.95088e-02 
   @DF-RHF iter   1: -1908.47271495145151    6.21286e+00   5.44672e-03 
   @DF-RHF iter   2: -1908.78697063280265   -3.14256e-01   3.00971e-03 DIIS
   @DF-RHF iter   3: -1908.86495197676390   -7.79813e-02   1.09145e-03 DIIS
   @DF-RHF iter   4: -1908.87837228687931   -1.34203e-02   2.32407e-04 DIIS
   @DF-RHF iter   5: -1908.87970974737277   -1.33746e-03   1.44148e-04 DIIS
   @DF-RHF iter   6: -1908.87992502288853   -2.15276e-04   4.93357e-05 DIIS
   @DF-RHF iter   7: -1908.87995366896621   -2.86461e-05   1.34400e-05 DIIS
   @DF-RHF iter   8: -1908.87995553488076   -1.86591e-06   3.63346e-06 DIIS
   @DF-RHF iter   9: -1908.87995572252953   -1.87649e-07   1.74056e-06 DIIS
   @DF-RHF iter  10: -1908.87995574911383   -2.65843e-08   4.89348e-07 DIIS
   @DF-RHF iter  11: -1908.87995575252808   -3.41424e-09   1.66667e-07 DIIS
   @DF-RHF iter  12: -1908.87995575307195   -5.43878e-10   9.42485e-08 DIIS
   @DF-RHF iter  13: -1908.87995575321725   -1.45292e-10   2.71328e-08 DIIS
   @DF-RHF iter  14: -1908.87995575325112   -3.38787e-11   1.21811e-08 DIIS
   @DF-RHF iter  15: -1908.87995575325499   -3.86535e-12   6.53721e-09 DIIS

  ==> Post-Iterations <==

    Orbital Energies [Eh]
    ---------------------

    Doubly Occupied:                                                      

       1A   -104.850315     2A   -104.846821     3A   -104.846549  
       4A    -20.639343     5A    -20.616770     6A    -20.571770  
       7A    -11.404869     8A    -11.337839     9A    -11.335844  
      10A    -11.333414    11A    -11.329348    12A    -11.323568  
      13A    -11.283524    14A    -11.272934    15A    -10.583356  
      16A    -10.580084    17A    -10.579769    18A     -8.052799  
      19A     -8.049528    20A     -8.049351    21A     -8.049293  
      22A     -8.049216    23A     -8.046003    24A     -8.045979  
      25A     -8.045678    26A     -8.045675    27A     -1.502442  
      28A     -1.448549    29A     -1.390907    30A     -1.244182  
      31A     -1.187296    32A     -1.154072    33A     -1.114725  
      34A     -1.055519    35A     -1.021182    36A     -0.981825  
      37A     -0.882528    38A     -0.869768    39A     -0.825392  
      40A     -0.751126    41A     -0.740060    42A     -0.720004  
      43A     -0.709883    44A     -0.685368    45A     -0.672251  
      46A     -0.652356    47A     -0.639851    48A     -0.613262  
      49A     -0.609286    50A     -0.593438    51A     -0.575218  
      52A     -0.564218    53A     -0.549952    54A     -0.530601  
      55A     -0.514720    56A     -0.500665    57A     -0.495763  
      58A     -0.485554    59A     -0.474895    60A     -0.460813  
      61A     -0.459159    62A     -0.451447    63A     -0.366173  
      64A     -0.346726  

    Virtual:                                                              

      65A      0.096581    66A      0.105176    67A      0.148891  
      68A      0.171888    69A      0.202878    70A      0.209845  
      71A      0.234148    72A      0.251292    73A      0.287807  
      74A      0.294510    75A      0.313049    76A      0.322413  
      77A      0.329639    78A      0.387001    79A      0.407687  
      80A      0.428634    81A      0.436853    82A      0.450490  
      83A      0.472155    84A      0.482205    85A      0.524080  
      86A      0.535262    87A      0.561091    88A      0.576973  
      89A      0.585750    90A      0.598081    91A      0.605414  
      92A      0.618889    93A      0.628209    94A      0.637411  
      95A      0.650720    96A      0.660415    97A      0.664050  
      98A      0.679672    99A      0.704445   100A      0.709539  
     101A      0.735499   102A      0.746090   103A      0.779974  
     104A      0.789952   105A      0.804984   106A      0.816529  
     107A      0.825513   108A      0.840813   109A      0.848759  
     110A      0.876555   111A      0.887425   112A      0.901263  
     113A      0.933244   114A      0.954613   115A      0.957874  
     116A      0.967888   117A      0.994202   118A      1.003493  
     119A      1.030341   120A      1.040329   121A      1.045445  
     122A      1.054609   123A      1.072479   124A      1.090575  
     125A      1.103850   126A      1.114929   127A      1.121810  
     128A      1.129765   129A      1.130250   130A      1.139998  
     131A      1.142378   132A      1.151407   133A      1.160605  
     134A      1.178583   135A      1.188823   136A      1.203084  
     137A      1.216410   138A      1.229970   139A      1.247216  
     140A      1.261534   141A      1.285928   142A      1.293754  
     143A      1.305125   144A      1.327403   145A      1.343716  
     146A      1.354012   147A      1.362763   148A      1.406427  
     149A      1.412044   150A      1.422599   151A      1.450824  
     152A      1.456779   153A      1.473904   154A      1.552885  
     155A      1.572811   156A      1.595769   157A      1.619593  
     158A      1.660724   159A      1.671178   160A      1.680481  
     161A      1.693663   162A      1.739997   163A      1.762189  
     164A      1.779136   165A      1.795735   166A      1.805063  
     167A      1.827763   168A      1.891527   169A      1.895168  
     170A      1.957887   171A      2.008774   172A      2.032179  
     173A      2.041250   174A      2.055812   175A      2.080046  
     176A      2.084978   177A      2.120598   178A      2.129985  
     179A      2.184656   180A      2.204392   181A      2.225679  
     182A      2.245142   183A      2.265112   184A      2.330936  
     185A      2.347173   186A      2.354146   187A      2.376386  
     188A      2.385527   189A      2.414314   190A      2.423656  
     191A      2.452164   192A      2.483432   193A      2.521363  
     194A      2.581457   195A      2.583725   196A      2.598963  
     197A      2.643022   198A      2.658357   199A      2.747592  
     200A      2.815257   201A      2.839218   202A      2.882095  
     203A      2.892812   204A      2.973568   205A      2.993684  
     206A      3.018313   207A      3.071636   208A      3.075080  
     209A      3.084340   210A      3.113637   211A      3.169762  
     212A      3.186488   213A      3.260322   214A      3.374212  
     215A      3.400806   216A      3.489683   217A      3.511435  
     218A      3.710287   219A      4.234790   220A      4.426345  
     221A      4.452724   222A      4.479840   223A      4.518294  
     224A      4.586905   225A      4.632558   226A      4.667171  
     227A      4.725501   228A      4.749513   229A      4.802935  
     230A      4.863432   231A      4.951553   232A      5.143760  

    Final Occupation by Irrep:
              A 
    DOCC [    64 ]

  Energy converged.

  @DF-RHF Final Energy: -1908.87995575325499

   => Energetics <=

    Nuclear Repulsion Energy =           1187.2743689593312411
    One-Electron Energy =               -4992.2870105808942753
    Two-Electron Energy =                1896.1326858683080445
    Total Energy =                      -1908.8799557532549898



Properties will be evaluated at   0.000000,   0.000000,   0.000000 [a0]

Properties computed using the SCF density matrix

  Nuclear Dipole Moment: [e a0]
     X:     5.6075      Y:     9.8579      Z:     5.4943

  Electronic Dipole Moment: [e a0]
     X:    -5.5534      Y:    -9.5350      Z:    -5.4385

  Dipole Moment: [e a0]
     X:     0.0541      Y:     0.3229      Z:     0.0558     Total:     0.3321

  Dipole Moment: [D]
     X:     0.1376      Y:     0.8207      Z:     0.1418     Total:     0.8442


*** tstop() called on wr53 at Wed Sep 26 15:54:48 2018
Module time:
	user time   =      90.59 seconds =       1.51 minutes
	system time =       6.04 seconds =       0.10 minutes
	total time  =         14 seconds =       0.23 minutes
Total time:
	user time   =     564.92 seconds =       9.42 minutes
	system time =      30.70 seconds =       0.51 minutes
	total time  =         81 seconds =       1.35 minutes

*** tstart() called on wr53
*** at Wed Sep 26 15:54:48 2018


         ------------------------------------------------------------
                                   SCF GRAD                          
                          Rob Parrish, Justin Turney,                
                       Andy Simmonett, and Alex Sokolov              
         ------------------------------------------------------------

  ==> Geometry <==

    Molecular point group: c1
    Full point group: C1

    Geometry (in Angstrom), charge = 0, multiplicity = 1:

       Center              X                  Y                   Z               Mass       
    ------------   -----------------  -----------------  -----------------  -----------------
         C            1.243384873651    -0.554065666945    -0.656832445652    12.000000000000
         O            1.246767350460     1.784358659188    -0.148621427373    15.994914619560
         C            0.577639101348     0.619254050048    -0.322204100855    12.000000000000
         C           -0.801776945328     0.605493215611    -0.231635422742    12.000000000000
         H           -1.311156605213     1.515953601178     0.010204095763     1.007825032070
         O            1.373923420621     2.936805478488     3.210672426733    15.994914619560
         C           -1.515547211386    -0.558827773275    -0.455028939774    12.000000000000
         C           -0.844229005860    -1.729126903858    -0.774658007283    12.000000000000
         C            0.536172152798    -1.718051516386    -0.876614903864    12.000000000000
         H            1.056666526679    -2.618838968211    -1.134483491873     1.007825032070
         C            1.858950217313     2.017217030692     1.088864092533    12.000000000000
         H            2.726023492683     2.635352438140     0.902862908893     1.007825032070
         H            2.197053858507     1.102393585945     1.555885554707     1.007825032070
         C            1.001143251148     2.753379386765     2.099275212641    12.000000000000
         O           -0.158771803393     3.187867313946     1.637033614363    15.994914619560
         H           -0.602599754271     3.649659773937     2.343062653097     1.007825032070
         CL          -1.678132364169    -3.219156586320    -1.062150023407    34.968852682000
         CL           2.970172795209    -0.569028300772    -0.825562314740    34.968852682000
         CL          -3.240769647678    -0.503098073589    -0.323448326288    34.968852682000

  Nuclear repulsion = 1187.274368959331241

  ==> Basis Set <==

  Basis Set: 6-31G(D)
    Blend: 6-31G(D)
    Number of shells: 100
    Number of basis function: 232
    Number of Cartesian functions: 232
    Spherical Harmonics?: false
    Max angular momentum: 2

  ==> DFJKGrad: Density-Fitted SCF Gradients <==

    Gradient:                    1
    J tasked:                  Yes
    K tasked:                  Yes
    wK tasked:                  No
    OpenMP threads:             16
[...]
     12   H               -0.17  0.29  0.26   -0.04  0.02  0.00   -0.09 -0.08 -0.20   
     13   H                0.40  0.03  0.20    0.03 -0.03 -0.07   -0.10 -0.07 -0.34   
     14   C                0.02  0.09 -0.04    0.01  0.01 -0.00    0.05 -0.01  0.00   
     15   O               -0.00 -0.01  0.00   -0.00 -0.00  0.00   -0.03  0.01 -0.01   
     16   H                0.07 -0.03  0.06   -0.00 -0.00  0.00   -0.05  0.01 -0.03   
     17   CL               0.01  0.02  0.00   -0.00 -0.01 -0.00    0.00  0.01  0.00   
     18   CL              -0.03  0.00  0.00    0.01  0.00 -0.00   -0.03  0.00  0.00   
     19   CL              -0.02  0.00  0.00   -0.00  0.00  0.00    0.00  0.00  0.00   

  Vibration                       40                  41                  42          
  Freq [cm^-1]                1259.9710           1340.9573           1375.9340       
  Irrep                           A                   A                   A           
  Reduced mass [u]              2.3511              2.0665              1.4631        
  Force const [mDyne/A]         2.1991              2.1894              1.6320        
  Turning point v=0 [a0]        0.2016              0.2084              0.2446        
  RMS dev v=0 [a0 u^1/2]        0.2186              0.2119              0.2092        
  Char temp [K]               1812.8149           1929.3360           1979.6597       
  ----------------------------------------------------------------------------------
      1   C               -0.03 -0.06 -0.01   -0.04 -0.02 -0.00   -0.04  0.02  0.01   
      2   O               -0.02 -0.03 -0.03    0.02  0.01  0.01    0.03  0.03  0.03   
      3   C               -0.05  0.07  0.02   -0.03 -0.05 -0.01   -0.08 -0.04 -0.01   
      4   C                0.06 -0.07 -0.02    0.00 -0.01 -0.00   -0.01 -0.00  0.00   
      5   H               -0.57 -0.43 -0.06    0.08  0.03 -0.01    0.63  0.35  0.03   
      6   O               -0.00  0.00 -0.01    0.03  0.01  0.09   -0.01 -0.00 -0.01   
      7   C                0.19 -0.04 -0.02    0.04 -0.01 -0.00    0.03 -0.08 -0.02   
      8   C                0.05  0.22  0.05    0.03  0.02  0.00    0.11  0.00 -0.01   
      9   C               -0.01  0.04  0.01   -0.02  0.03  0.01   -0.04  0.04  0.01   
     10   H               -0.55 -0.25 -0.01   -0.00  0.05  0.01   -0.53 -0.22 -0.01   
     11   C                0.02  0.01  0.03   -0.05  0.04  0.01   -0.01 -0.00 -0.03   
     12   H                0.03 -0.03 -0.05   -0.01  0.04  0.17    0.00  0.06  0.19   
     13   H               -0.01  0.01  0.06   -0.06  0.00 -0.06    0.01 -0.05 -0.14   
     14   C               -0.02 -0.00  0.00    0.13 -0.06 -0.01    0.01  0.01 -0.01   
     15   O                0.01 -0.00  0.01   -0.13  0.02 -0.13    0.01 -0.00  0.02   
     16   H               -0.01  0.00 -0.01    0.72 -0.17  0.57   -0.16  0.04 -0.12   
     17   CL              -0.01 -0.02 -0.00   -0.00 -0.00 -0.00   -0.00 -0.00 -0.00   
     18   CL               0.00  0.00 -0.00    0.00  0.00 -0.00    0.01 -0.00 -0.00   
     19   CL              -0.03  0.00  0.00   -0.00  0.00  0.00   -0.00  0.00  0.00   

  Vibration                       43                  44                  45          
  Freq [cm^-1]                1386.5560           1444.8515           1495.1763       
  Irrep                           A                   A                   A           
  Reduced mass [u]              1.8027              1.5032              3.7317        
  Force const [mDyne/A]         2.0420              1.8489              4.9153        
  Turning point v=0 [a0]        0.2195              0.2354              0.1469        
  RMS dev v=0 [a0 u^1/2]        0.2084              0.2041              0.2007        
  Char temp [K]               1994.9424           2078.8164           2151.2225       
  ----------------------------------------------------------------------------------
      1   C               -0.08 -0.11 -0.02    0.05  0.08  0.01   -0.10 -0.13 -0.02   
      2   O                0.04  0.05  0.06   -0.04 -0.09 -0.01   -0.05 -0.07 -0.01   
      3   C               -0.01 -0.13 -0.04   -0.02  0.07  0.00    0.23  0.08  0.01   
      4   C               -0.03 -0.02  0.00    0.04 -0.01 -0.00   -0.02  0.15  0.03   
      5   H               -0.22 -0.12 -0.03   -0.04 -0.06 -0.01   -0.21  0.07  0.05   
      6   O               -0.01 -0.01 -0.02   -0.00 -0.01 -0.00    0.02 -0.01 -0.01   
      7   C                0.06  0.02  0.00   -0.01  0.03  0.01   -0.16 -0.16 -0.03   
      8   C                0.03  0.06  0.01   -0.07 -0.02 -0.00    0.17 -0.00 -0.01   
      9   C               -0.03  0.08  0.02    0.04 -0.05 -0.02   -0.05  0.10  0.03   
     10   H                0.49  0.39  0.05   -0.12 -0.16 -0.03   -0.14  0.07  0.03   
     11   C               -0.01 -0.00 -0.05    0.03  0.04  0.01    0.01  0.03  0.08   
     12   H                0.01  0.15  0.47    0.05  0.22  0.65    0.04 -0.12 -0.26   
     13   H                0.03 -0.14 -0.37   -0.03 -0.28 -0.60    0.02 -0.29 -0.60   
     14   C                0.02  0.03 -0.01    0.00  0.05 -0.01   -0.12  0.08  0.02   
     15   O                0.02 -0.00  0.03    0.00 -0.01 -0.00    0.03 -0.03 -0.02   
     16   H               -0.21  0.04 -0.15    0.04 -0.02  0.03    0.31 -0.09  0.21   
     17   CL              -0.00 -0.01 -0.00    0.00  0.00  0.00   -0.01 -0.00  0.00   
     18   CL               0.01  0.00 -0.00   -0.00 -0.00  0.00    0.00  0.00  0.00   
     19   CL              -0.01  0.00  0.00    0.00 -0.00 -0.00    0.01  0.00  0.00   

  Vibration                       46                  47                  48          
  Freq [cm^-1]                1527.2135           1553.3407           1617.8852       
  Irrep                           A                   A                   A           
  Reduced mass [u]              1.8181              2.6916              1.1313        
  Force const [mDyne/A]         2.4985              3.8264              1.7447        
  Turning point v=0 [a0]        0.2082              0.1697              0.2565        
  RMS dev v=0 [a0 u^1/2]        0.1985              0.1969              0.1929        
  Char temp [K]               2197.3169           2234.9079           2327.7730       
  ----------------------------------------------------------------------------------
      1   C               -0.04 -0.02 -0.00    0.00 -0.01 -0.00   -0.02  0.01  0.01   
      2   O               -0.06 -0.04 -0.02   -0.00 -0.02 -0.03   -0.01  0.01 -0.00   
      3   C                0.10  0.05  0.00    0.02  0.01  0.00    0.00 -0.03 -0.01   
      4   C                0.02  0.07  0.02   -0.00  0.01  0.00    0.03  0.02  0.00   
      5   H               -0.20 -0.04 -0.00   -0.03 -0.00 -0.01   -0.10 -0.05 -0.01   
      6   O               -0.01  0.01  0.02   -0.05  0.01 -0.05    0.00 -0.00  0.00   
      7   C               -0.08 -0.06 -0.01   -0.01 -0.00 -0.00   -0.02  0.01  0.00   
      8   C                0.05 -0.01 -0.01    0.00  0.00 -0.00   -0.00 -0.02 -0.01   
      9   C               -0.00  0.02  0.01   -0.00  0.00  0.00    0.03  0.01  0.00   
     10   H               -0.12 -0.04 -0.00    0.01  0.01  0.00   -0.10 -0.06 -0.01   
     11   C                0.02 -0.03 -0.07   -0.08  0.11  0.17   -0.07  0.01 -0.03   
     12   H               -0.10  0.32  0.55    0.10 -0.32 -0.37    0.37 -0.49  0.29   
     13   H               -0.14  0.22  0.54    0.12 -0.14 -0.48    0.64  0.29  0.04   
     14   C                0.13 -0.07 -0.03    0.25 -0.14 -0.02   -0.02  0.01  0.00   
     15   O               -0.04  0.02  0.01   -0.08  0.05  0.03    0.01 -0.00 -0.00   
     16   H               -0.24  0.07 -0.16   -0.48  0.14 -0.31    0.03 -0.01  0.02   
     17   CL              -0.00  0.00  0.00   -0.00  0.00  0.00    0.00  0.00  0.00   
     18   CL               0.00  0.00 -0.00   -0.00  0.00  0.00    0.00 -0.00 -0.00   
     19   CL               0.01  0.00 -0.00    0.00  0.00  0.00    0.00 -0.00 -0.00   

  Vibration                       49                  50                  51          
  Freq [cm^-1]                1653.4151           1741.8723           1791.2282       
  Irrep                           A                   A                   A           
  Reduced mass [u]              2.8246             10.1533              6.5498        
  Force const [mDyne/A]         4.5496             18.1506             12.3817        
  Turning point v=0 [a0]        0.1606              0.0825              0.1013        
  RMS dev v=0 [a0 u^1/2]        0.1908              0.1859              0.1833        
  Char temp [K]               2378.8926           2506.1626           2577.1746       
  ----------------------------------------------------------------------------------
      1   C                0.12 -0.02 -0.02   -0.16  0.37  0.10    0.14  0.21  0.04   
      2   O               -0.03 -0.06 -0.02    0.00  0.04  0.01    0.02  0.03  0.01   
      3   C                0.06  0.17  0.04    0.31 -0.35 -0.10   -0.24 -0.14 -0.02   
      4   C               -0.13 -0.05 -0.00   -0.14  0.15  0.04    0.33  0.19  0.02   
      5   H                0.44  0.27  0.04   -0.10  0.20  0.05   -0.46 -0.24 -0.03   
      6   O               -0.00  0.00  0.00   -0.00 -0.00 -0.00    0.00 -0.00 -0.00   
      7   C                0.09 -0.11 -0.03    0.14 -0.35 -0.09   -0.14 -0.17 -0.03   
      8   C                0.01  0.15  0.03   -0.32  0.27  0.09    0.18  0.07  0.00   
      9   C               -0.16 -0.11 -0.01    0.17 -0.12 -0.04   -0.30 -0.19 -0.02   
     10   H                0.54  0.28  0.02   -0.04 -0.27 -0.06    0.41  0.20  0.01   
     11   C               -0.02  0.00 -0.02    0.00 -0.00  0.01    0.01  0.01  0.02   
     12   H                0.15 -0.16  0.25   -0.05  0.03 -0.14   -0.01  0.02 -0.08   
     13   H                0.25  0.15  0.08   -0.08 -0.06 -0.05   -0.04 -0.06 -0.06   
     14   C                0.00  0.00  0.00   -0.00  0.00  0.00   -0.01  0.00  0.00   
     15   O               -0.00 -0.00 -0.00    0.00 -0.00  0.00    0.00 -0.00  0.00   
     16   H                0.01 -0.00  0.01   -0.00 -0.00 -0.00   -0.01 -0.00 -0.01   
     17   CL              -0.00 -0.01 -0.00    0.00 -0.00 -0.00   -0.00 -0.00 -0.00   
     18   CL              -0.01  0.00  0.00    0.01 -0.00 -0.00   -0.00 -0.00 -0.00   
     19   CL              -0.00  0.00  0.00   -0.00  0.00  0.00    0.00  0.00  0.00   

  Vibration                       52                  53                  54          
  Freq [cm^-1]                2036.5993           3271.4912           3325.3792       
  Irrep                           A                   A                   A           
  Reduced mass [u]             10.0720              1.0596              1.1083        
  Force const [mDyne/A]        24.6137              6.6817              7.2206        
  Turning point v=0 [a0]        0.0766              0.1864              0.1807        
  RMS dev v=0 [a0 u^1/2]        0.1719              0.1357              0.1345        
  Char temp [K]               2930.2084           4706.9402           4784.4730       
  ----------------------------------------------------------------------------------
      1   C                0.00 -0.00 -0.00    0.00  0.00  0.00    0.00  0.00  0.00   
      2   O                0.00 -0.00 -0.00    0.00  0.00  0.00    0.00  0.00 -0.00   
      3   C               -0.00 -0.00 -0.00   -0.00 -0.00 -0.00    0.00  0.00  0.00   
      4   C                0.00  0.00  0.00    0.00  0.00  0.00    0.00 -0.00 -0.00   
      5   H               -0.02 -0.01 -0.01    0.00 -0.00 -0.00   -0.00  0.00  0.00   
      6   O               -0.13 -0.08 -0.43   -0.00 -0.00 -0.00   -0.00  0.00 -0.00   
      7   C               -0.00  0.00  0.00   -0.00 -0.00 -0.00    0.00 -0.00 -0.00   
      8   C                0.00 -0.00 -0.00   -0.00  0.00  0.00   -0.00  0.00  0.00   
      9   C                0.00  0.00  0.00   -0.00  0.00  0.00   -0.00  0.00  0.00   
     10   H                0.00  0.00  0.00    0.00 -0.00 -0.00    0.00  0.00  0.00   
     11   C                0.01 -0.03 -0.07    0.06 -0.02  0.01   -0.03 -0.08  0.03   
     12   H               -0.02  0.08  0.11   -0.52 -0.38  0.12    0.60  0.42 -0.14   
     13   H               -0.05  0.05  0.18   -0.22  0.64 -0.31   -0.21  0.56 -0.27   
     14   C                0.19  0.14  0.69    0.00  0.00  0.00   -0.00 -0.00  0.00   
     15   O               -0.03 -0.00 -0.06   -0.00  0.00 -0.00   -0.00 -0.00  0.00   
     16   H                0.35 -0.09  0.25    0.00  0.00  0.00   -0.00 -0.00 -0.00   
     17   CL               0.00  0.00  0.00    0.00  0.00  0.00   -0.00 -0.00  0.00   
     18   CL              -0.00  0.00  0.00   -0.00 -0.00 -0.00    0.00 -0.00 -0.00   
     19   CL               0.00  0.00 -0.00    0.00  0.00 -0.00   -0.00  0.00 -0.00   

  Vibration                       55                  56                  57          
  Freq [cm^-1]                3421.5769           3438.9614           4042.6644       
  Irrep                           A                   A                   A           
  Reduced mass [u]              1.0940              1.0936              1.0652        
  Force const [mDyne/A]         7.5460              7.6204             10.2566        
  Turning point v=0 [a0]        0.1793              0.1789              0.1672        
  RMS dev v=0 [a0 u^1/2]        0.1326              0.1323              0.1220        
  Char temp [K]               4922.8798           4947.8923           5816.4851       
  ----------------------------------------------------------------------------------
      1   C                0.00  0.00  0.00   -0.00  0.00  0.00    0.00  0.00 -0.00   
      2   O               -0.00 -0.00 -0.00    0.00  0.00  0.00   -0.00  0.00  0.00   
      3   C               -0.00  0.00  0.00   -0.00 -0.00  0.00   -0.00 -0.00 -0.00   
      4   C                0.00 -0.00 -0.00    0.04 -0.07 -0.02    0.00  0.00  0.00   
      5   H               -0.02  0.04  0.01   -0.48  0.84  0.23   -0.00 -0.00 -0.00   
      6   O                0.00 -0.00 -0.00    0.00 -0.00 -0.00   -0.00  0.00 -0.00   
      7   C               -0.00  0.00  0.00    0.00  0.00  0.00   -0.00 -0.00  0.00   
      8   C               -0.00 -0.00  0.00   -0.00  0.00  0.00   -0.00 -0.00 -0.00   
      9   C                0.04 -0.07 -0.02   -0.00  0.00  0.00    0.00  0.00  0.00   
     10   H               -0.48  0.84  0.24    0.02 -0.04 -0.01    0.00 -0.00 -0.00   
     11   C                0.00  0.00  0.00    0.00  0.00  0.00   -0.00  0.00  0.00   
     12   H               -0.00 -0.00  0.00   -0.00 -0.00  0.00    0.00  0.00 -0.00   
     13   H               -0.00  0.00 -0.00    0.00 -0.00 -0.00    0.00  0.00  0.00   
     14   C               -0.00 -0.00  0.00   -0.00  0.00  0.00    0.00 -0.00 -0.00   
     15   O                0.00 -0.00  0.00   -0.00 -0.00 -0.00    0.03 -0.03 -0.04   
     16   H               -0.00 -0.00  0.00   -0.00 -0.00 -0.00   -0.48  0.49  0.73   
     17   CL               0.00  0.00  0.00   -0.00 -0.00 -0.00    0.00  0.00  0.00   
     18   CL              -0.00  0.00  0.00    0.00 -0.00 -0.00   -0.00  0.00  0.00   
     19   CL               0.00  0.00 -0.00   -0.00  0.00  0.00    0.00  0.00  0.00   

  ==> Thermochemistry Components <==

  Entropy, S
    Electronic S            0.000 [cal/(mol K)]        0.000 [J/(mol K)]       0.00000000 [mEh/K] (multiplicity = 1)
    Translational S        42.496 [cal/(mol K)]      177.803 [J/(mol K)]       0.06772143 [mEh/K] (mol. weight = 253.9304 [u], P = 101325.00 [Pa])
    Rotational S           33.250 [cal/(mol K)]      139.118 [J/(mol K)]       0.05298717 [mEh/K] (symmetry no. = 1)
    Vibrational S          41.582 [cal/(mol K)]      173.980 [J/(mol K)]       0.06626544 [mEh/K]
  Total S                 117.328 [cal/(mol K)]      490.900 [J/(mol K)]       0.18697403 [mEh/K]
  Correction S              0.000 [cal/(mol K)]        0.000 [J/(mol K)]       0.00000000 [mEh/K]

  Constant volume heat capacity, Cv
    Electronic Cv           0.000 [cal/(mol K)]        0.000 [J/(mol K)]       0.00000000 [mEh/K]
    Translational Cv        2.981 [cal/(mol K)]       12.472 [J/(mol K)]       0.00475022 [mEh/K]
    Rotational Cv           2.981 [cal/(mol K)]       12.472 [J/(mol K)]       0.00475022 [mEh/K]
    Vibrational Cv         38.117 [cal/(mol K)]      159.483 [J/(mol K)]       0.06074379 [mEh/K]
  Total Cv                 44.079 [cal/(mol K)]      184.426 [J/(mol K)]       0.07024424 [mEh/K]
  Correction Cv             0.000 [cal/(mol K)]        0.000 [J/(mol K)]       0.00000000 [mEh/K]

  Constant pressure heat capacity, Cp
    Electronic Cp           0.000 [cal/(mol K)]        0.000 [J/(mol K)]       0.00000000 [mEh/K]
    Translational Cp        4.968 [cal/(mol K)]       20.786 [J/(mol K)]       0.00791704 [mEh/K]
    Rotational Cp           2.981 [cal/(mol K)]       12.472 [J/(mol K)]       0.00475022 [mEh/K]
    Vibrational Cp         38.117 [cal/(mol K)]      159.483 [J/(mol K)]       0.06074379 [mEh/K]
  Total Cp                 46.066 [cal/(mol K)]      192.741 [J/(mol K)]       0.07341105 [mEh/K]
  Correction Cp             0.000 [cal/(mol K)]        0.000 [J/(mol K)]       0.00000000 [mEh/K]

  ==> Thermochemistry Energy Analysis <==

  Raw electronic energy, E0
  Total E0, Electronic energy at well bottom at 0 [K]                -1908.87995652 [Eh]

  Zero-point energy, ZPE_vib = Sum_i nu_i / 2
    Electronic ZPE          0.000 [kcal/mol]        0.000 [kJ/mol]       0.00000000 [Eh]
    Translational ZPE       0.000 [kcal/mol]        0.000 [kJ/mol]       0.00000000 [Eh]
    Rotational ZPE          0.000 [kcal/mol]        0.000 [kJ/mol]       0.00000000 [Eh]
    Vibrational ZPE        81.210 [kcal/mol]      339.782 [kJ/mol]       0.12941605 [Eh]       28403.535 [cm^-1]
  Correction ZPE           81.210 [kcal/mol]      339.782 [kJ/mol]       0.12941605 [Eh]       28403.535 [cm^-1]
  Total ZPE, Electronic energy at 0 [K]                              -1908.75054048 [Eh]

  Thermal Energy, E (includes ZPE)
    Electronic E            0.000 [kcal/mol]        0.000 [kJ/mol]       0.00000000 [Eh]
    Translational E         0.889 [kcal/mol]        3.718 [kJ/mol]       0.00141628 [Eh]
    Rotational E            0.889 [kcal/mol]        3.718 [kJ/mol]       0.00141628 [Eh]
    Vibrational E          87.278 [kcal/mol]      365.171 [kJ/mol]       0.13908618 [Eh]
  Correction E             89.055 [kcal/mol]      372.608 [kJ/mol]       0.14191874 [Eh]
  Total E, Electronic energy at  298.15 [K]                          -1908.73803778 [Eh]

  Enthalpy, H_trans = E_trans + k_B * T
    Electronic H            0.000 [kcal/mol]        0.000 [kJ/mol]       0.00000000 [Eh]
    Translational H         1.481 [kcal/mol]        6.197 [kJ/mol]       0.00236046 [Eh]
    Rotational H            0.889 [kcal/mol]        3.718 [kJ/mol]       0.00141628 [Eh]
    Vibrational H          87.278 [kcal/mol]      365.171 [kJ/mol]       0.13908618 [Eh]
  Correction H             89.648 [kcal/mol]      375.087 [kJ/mol]       0.14286293 [Eh]
  Total H, Enthalpy at  298.15 [K]                                   -1908.73709360 [Eh]

  Gibbs free energy, G = H - T * S
    Electronic G            0.000 [kcal/mol]        0.000 [kJ/mol]       0.00000000 [Eh]
    Translational G       -11.189 [kcal/mol]      -46.814 [kJ/mol]      -0.01783068 [Eh]
    Rotational G           -9.025 [kcal/mol]      -37.760 [kJ/mol]      -0.01438185 [Eh]
    Vibrational G          74.880 [kcal/mol]      313.299 [kJ/mol]       0.11932914 [Eh]
  Correction G             54.667 [kcal/mol]      228.725 [kJ/mol]       0.08711662 [Eh]
  Total G, Free enthalpy at  298.15 [K]                              -1908.79283991 [Eh]

    Psi4 stopped on: Wednesday, 26 September 2018 04:23PM
    Psi4 wall time for execution: 0:30:23.78

*** Psi4 exiting successfully. Buy a developer a beer!
