
    -----------------------------------------------------------------------
          Psi4: An Open-Source Ab Initio Electronic Structure Package
                               Psi4 1.2.1 release

                         Git: Rev {HEAD} 406f4de 


    R. M. Parrish, L. A. Burns, D. G. A. Smith, A. C. Simmonett,
    A. E. DePrince III, E. G. Hohenstein, U. Bozkaya, A. Yu. Sokolov,
    R. Di Remigio, R. M. Richard, J. F. Gonthier, A. M. James,
    H. R. McAlexander, A. Kumar, M. Saitow, X. Wang, B. P. Pritchard,
    P. Verma, H. F. Schaefer III, K. Patkowski, R. A. King, E. F. Valeev,
    F. A. Evangelista, J. M. Turney, T. D. Crawford, and C. D. Sherrill,
    J. Chem. Theory Comput. 13(7) pp 3185--3197 (2017).
    (doi: 10.1021/acs.jctc.7b00174)


                         Additional Contributions by
    P. Kraus, H. Kruse, M. H. Lechner, M. C. Schieber, and R. A. Shaw

    -----------------------------------------------------------------------


    Psi4 started on: Thursday, 27 September 2018 12:49PM

    Process ID: 7167
    Host:       wr60
    PSIDATADIR: /usr/local/hpc1/software_molmod/psi4/psi4conda/share/psi4
    Memory:     500.0 MiB
    Threads:    16
    
  ==> Input File <==

--------------------------------------------------------------------------
memory 110 Gb

molecule conf8 {
C     1.224680092236    -0.551914602636    -0.721593459657
O     1.274808226208     1.743915686865    -0.060956905884
C     0.584651490399     0.597678780140    -0.277648071288
C    -0.787274533482     0.582497478757    -0.114536874038
H    -1.283205753805     1.471164408355     0.221796817365
O     0.263936309764     2.175335771007     2.910190624366
C    -1.521500917892    -0.559381938820    -0.383336402389
C    -0.875441271367    -1.705857045675    -0.819874448081
C     0.498660996942    -1.694777449099    -0.987930016515
H     0.998615196383    -2.578204670406    -1.332029984472
C     1.910539867529     1.902819073684     1.191409130665
H     2.818068478217     2.457339301595     1.013173874197
H     2.135607684911     0.949217189067     1.644166116171
C     0.988147609399     2.676382313974     2.115132791600
O     1.056731639452     3.983272933059     1.911305869402
H     0.432427558096     4.415845340202     2.486817510670
CL    -1.734514587046    -3.167326346818    -1.172673833851
CL     2.942798107675    -0.562724331639    -0.961007222578
CL    -3.236528860592    -0.506218468587    -0.160628874344
}
set globals {
  reference rhf
  g_convergence gau_tight
  basis 6-31G(d)
}
frequency('hf', dertype=1)
--------------------------------------------------------------------------

  Memory set to 102.445 GiB by Python driver.
gradient() will perform analytic gradient computation.

*** tstart() called on wr60
*** at Thu Sep 27 12:49:27 2018

   => Loading Basis Set <=

    Name: 6-31G(D)
    Role: ORBITAL
    Keyword: BASIS
    atoms 1, 3-4, 7-9, 11, 14 entry C          line   111 file /usr/local/hpc1/software_molmod/psi4/psi4conda/share/psi4/basis/6-31g_d_.gbs 
    atoms 2, 6, 15            entry O          line   145 file /usr/local/hpc1/software_molmod/psi4/psi4conda/share/psi4/basis/6-31g_d_.gbs 
    atoms 5, 10, 12-13, 16    entry H          line    44 file /usr/local/hpc1/software_molmod/psi4/psi4conda/share/psi4/basis/6-31g_d_.gbs 
    atoms 17-19               entry CL         line   340 file /usr/local/hpc1/software_molmod/psi4/psi4conda/share/psi4/basis/6-31g_d_.gbs 

    There are an even number of electrons - assuming singlet.
    Specify the multiplicity in the molecule input block.


         ---------------------------------------------------------
                                   SCF
            by Justin Turney, Rob Parrish, Andy Simmonett
                             and Daniel Smith
                              RHF Reference
                       16 Threads, 104904 MiB Core
         ---------------------------------------------------------

  ==> Geometry <==

    Molecular point group: c1
    Full point group: C1

    Geometry (in Angstrom), charge = 0, multiplicity = 1:

       Center              X                  Y                   Z               Mass       
    ------------   -----------------  -----------------  -----------------  -----------------
         C            1.224680092236    -0.551914602636    -0.721593459657    12.000000000000
         O            1.274808226208     1.743915686865    -0.060956905884    15.994914619560
         C            0.584651490399     0.597678780140    -0.277648071288    12.000000000000
         C           -0.787274533482     0.582497478757    -0.114536874038    12.000000000000
         H           -1.283205753805     1.471164408355     0.221796817365     1.007825032070
         O            0.263936309764     2.175335771007     2.910190624366    15.994914619560
         C           -1.521500917892    -0.559381938820    -0.383336402389    12.000000000000
         C           -0.875441271367    -1.705857045675    -0.819874448081    12.000000000000
         C            0.498660996942    -1.694777449099    -0.987930016515    12.000000000000
         H            0.998615196383    -2.578204670406    -1.332029984472     1.007825032070
         C            1.910539867529     1.902819073684     1.191409130665    12.000000000000
         H            2.818068478217     2.457339301595     1.013173874197     1.007825032070
         H            2.135607684911     0.949217189067     1.644166116171     1.007825032070
         C            0.988147609399     2.676382313974     2.115132791600    12.000000000000
         O            1.056731639452     3.983272933059     1.911305869402    15.994914619560
         H            0.432427558096     4.415845340202     2.486817510670     1.007825032070
         CL          -1.734514587046    -3.167326346818    -1.172673833851    34.968852682000
         CL           2.942798107675    -0.562724331639    -0.961007222578    34.968852682000
         CL          -3.236528860592    -0.506218468587    -0.160628874344    34.968852682000

  Running in c1 symmetry.

  Rotational constants: A =      0.02139  B =      0.01040  C =      0.00739 [cm^-1]
  Rotational constants: A =    641.32359  B =    311.68807  C =    221.51006 [MHz]
  Nuclear repulsion = 1185.542728451100402

  Charge       = 0
  Multiplicity = 1
  Electrons    = 128
  Nalpha       = 64
  Nbeta        = 64

  ==> Algorithm <==

  SCF Algorithm Type is DF.
  DIIS enabled.
  MOM disabled.
  Fractional occupation disabled.
  Guess Type is SAD.
  Energy threshold   = 1.00e-08
  Density threshold  = 1.00e-08
  Integral threshold = 0.00e+00

  ==> Primary Basis <==

  Basis Set: 6-31G(D)
    Blend: 6-31G(D)
    Number of shells: 100
    Number of basis function: 232
    Number of Cartesian functions: 232
    Spherical Harmonics?: false
    Max angular momentum: 2

   => Loading Basis Set <=

    Name: (6-31G(D) AUX)
    Role: JKFIT
    Keyword: DF_BASIS_SCF
    atoms 1, 3-4, 7-9, 11, 14 entry C          line   121 file /usr/local/hpc1/software_molmod/psi4/psi4conda/share/psi4/basis/cc-pvdz-jkfit.gbs 
    atoms 2, 6, 15            entry O          line   221 file /usr/local/hpc1/software_molmod/psi4/psi4conda/share/psi4/basis/cc-pvdz-jkfit.gbs 
    atoms 5, 10, 12-13, 16    entry H          line    51 file /usr/local/hpc1/software_molmod/psi4/psi4conda/share/psi4/basis/cc-pvdz-jkfit.gbs 
    atoms 17-19               entry CL         line   667 file /usr/local/hpc1/software_molmod/psi4/psi4conda/share/psi4/basis/cc-pvdz-jkfit.gbs 

  ==> Pre-Iterations <==

   -------------------------------------------------------
    Irrep   Nso     Nmo     Nalpha   Nbeta   Ndocc  Nsocc
   -------------------------------------------------------
     A        232     232       0       0       0       0
   -------------------------------------------------------
    Total     232     232      64      64      64       0
   -------------------------------------------------------

  ==> Integral Setup <==

  ==> DiskDFJK: Density-Fitted J/K Matrices <==

    J tasked:                  Yes
    K tasked:                  Yes
    wK tasked:                  No
    OpenMP threads:             16
    Integrals threads:          16
    Memory (MB):             78678
    Algorithm:                Core
    Integral Cache:           NONE
    Schwarz Cutoff:          1E-12
    Fitting Condition:       1E-12

   => Auxiliary Basis Set <=

  Basis Set: (6-31G(D) AUX)
    Blend: CC-PVDZ-JKFIT
    Number of shells: 417
    Number of basis function: 1406
    Number of Cartesian functions: 1406
    Spherical Harmonics?: false
    Max angular momentum: 3

  Minimum eigenvalue in the overlap matrix is 3.6644850520E-04.
  Using Symmetric Orthogonalization.

  SCF Guess: Superposition of Atomic Densities via on-the-fly atomic UHF.

  ==> Iterations <==

                           Total Energy        Delta E     RMS |[F,P]|

   @DF-RHF iter   0: -1913.96194849658286   -1.91396e+03   1.09395e-01 
   @DF-RHF iter   1: -1908.44809063240928    5.51386e+00   1.37815e-02 
   @DF-RHF iter   2: -1908.76807693010551   -3.19986e-01   7.95510e-03 DIIS
   @DF-RHF iter   3: -1908.86163627393125   -9.35593e-02   1.98957e-03 DIIS
   @DF-RHF iter   4: -1908.87444730472134   -1.28110e-02   6.38435e-04 DIIS
   @DF-RHF iter   5: -1908.87567501869171   -1.22771e-03   2.53467e-04 DIIS
   @DF-RHF iter   6: -1908.87593690477388   -2.61886e-04   1.08604e-04 DIIS
   @DF-RHF iter   7: -1908.87599135920914   -5.44544e-05   3.62876e-05 DIIS
   @DF-RHF iter   8: -1908.87599871786938   -7.35866e-06   1.57840e-05 DIIS
   @DF-RHF iter   9: -1908.87600021570211   -1.49783e-06   7.36938e-06 DIIS
   @DF-RHF iter  10: -1908.87600057254076   -3.56839e-07   2.66442e-06 DIIS
   @DF-RHF iter  11: -1908.87600061743160   -4.48908e-08   1.12798e-06 DIIS
   @DF-RHF iter  12: -1908.87600062488241   -7.45081e-09   4.78421e-07 DIIS
   @DF-RHF iter  13: -1908.87600062604633   -1.16393e-09   1.53388e-07 DIIS
   @DF-RHF iter  14: -1908.87600062620663   -1.60298e-10   4.68858e-08 DIIS
   @DF-RHF iter  15: -1908.87600062621982   -1.31877e-11   1.78627e-08 DIIS
   @DF-RHF iter  16: -1908.87600062622073   -9.09495e-13   8.16334e-09 DIIS

  ==> Post-Iterations <==

    Orbital Energies [Eh]
    ---------------------

    Doubly Occupied:                                                      

       1A   -104.848974     2A   -104.844714     3A   -104.844443  
       4A    -20.634937     5A    -20.618694     6A    -20.575839  
       7A    -11.402417     8A    -11.336431     9A    -11.334202  
      10A    -11.331654    11A    -11.327610    12A    -11.320819  
      13A    -11.281950    14A    -11.273461    15A    -10.582008  
      16A    -10.577940    17A    -10.577715    18A     -8.051454  
      19A     -8.048008    20A     -8.047949    21A     -8.047387  
      22A     -8.047163    23A     -8.043850    24A     -8.043845  
      25A     -8.043623    26A     -8.043602    27A     -1.499494  
      28A     -1.446709    29A     -1.390146    30A     -1.242512  
      31A     -1.185708    32A     -1.152250    33A     -1.113071  
      34A     -1.054157    35A     -1.020255    36A     -0.980311  
      37A     -0.881559    38A     -0.864009    39A     -0.822708  
      40A     -0.748208    41A     -0.739973    42A     -0.722659  
      43A     -0.701467    44A     -0.686356    45A     -0.674837  
      46A     -0.648813    47A     -0.635284    48A     -0.614007  
      49A     -0.607580    50A     -0.591933    51A     -0.573687  
      52A     -0.566391    53A     -0.548546    54A     -0.528800  
      55A     -0.512968    56A     -0.499287    57A     -0.498588  
      58A     -0.483934    59A     -0.473477    60A     -0.459142  
      61A     -0.457762    62A     -0.449625    63A     -0.364487  
      64A     -0.344956  

    Virtual:                                                              

      65A      0.098519    66A      0.105914    67A      0.149129  
      68A      0.160474    69A      0.205172    70A      0.215303  
      71A      0.236569    72A      0.271228    73A      0.275672  
      74A      0.289136    75A      0.304295    76A      0.321828  
      77A      0.343579    78A      0.367507    79A      0.397356  
      80A      0.425182    81A      0.435116    82A      0.447769  
      83A      0.475484    84A      0.494431    85A      0.508616  
      86A      0.529141    87A      0.539804    88A      0.571476  
      89A      0.584714    90A      0.600390    91A      0.605234  
      92A      0.618508    93A      0.628296    94A      0.635943  
      95A      0.655072    96A      0.665057    97A      0.676826  
      98A      0.685896    99A      0.710445   100A      0.719892  
     101A      0.739324   102A      0.752905   103A      0.766181  
     104A      0.795064   105A      0.808415   106A      0.812591  
     107A      0.822245   108A      0.844230   109A      0.851565  
     110A      0.881687   111A      0.890157   112A      0.913098  
     113A      0.925172   114A      0.938326   115A      0.960979  
     116A      0.970221   117A      0.998015   118A      1.007792  
     119A      1.033722   120A      1.043931   121A      1.048774  
     122A      1.067711   123A      1.080236   124A      1.097307  
     125A      1.115664   126A      1.120409   127A      1.125570  
     128A      1.131193   129A      1.133474   130A      1.136493  
     131A      1.143619   132A      1.146930   133A      1.159466  
     134A      1.190550   135A      1.195397   136A      1.210625  
     137A      1.214778   138A      1.225867   139A      1.254999  
     140A      1.263106   141A      1.280426   142A      1.300301  
     143A      1.316786   144A      1.320956   145A      1.330052  
     146A      1.336116   147A      1.375735   148A      1.416245  
     149A      1.420997   150A      1.430689   151A      1.455019  
     152A      1.470783   153A      1.476517   154A      1.551453  
     155A      1.580121   156A      1.596718   157A      1.630059  
     158A      1.635024   159A      1.662667   160A      1.678419  
     161A      1.689889   162A      1.700148   163A      1.753366  
     164A      1.784517   165A      1.796863   166A      1.824198  
     167A      1.833972   168A      1.859980   169A      1.916616  
     170A      1.966557   171A      1.980480   172A      2.022387  
     173A      2.038171   174A      2.074093   175A      2.084454  
     176A      2.104940   177A      2.132861   178A      2.136058  
     179A      2.189999   180A      2.221080   181A      2.225542  
     182A      2.244161   183A      2.265394   184A      2.314890  
     185A      2.321759   186A      2.341096   187A      2.385688  
     188A      2.412973   189A      2.421187   190A      2.442132  
     191A      2.454968   192A      2.505697   193A      2.518905  
     194A      2.580654   195A      2.588409   196A      2.593915  
     197A      2.634294   198A      2.668745   199A      2.768872  
     200A      2.834113   201A      2.854944   202A      2.874382  
     203A      2.897223   204A      2.973610   205A      3.001633  
     206A      3.036392   207A      3.072036   208A      3.081019  
     209A      3.096824   210A      3.115373   211A      3.186523  
     212A      3.219059   213A      3.229186   214A      3.345981  
     215A      3.399085   216A      3.462922   217A      3.487474  
     218A      3.712038   219A      4.277462   220A      4.417397  
     221A      4.437315   222A      4.486535   223A      4.512774  
     224A      4.602265   225A      4.638162   226A      4.665587  
     227A      4.726806   228A      4.749020   229A      4.798829  
     230A      4.872682   231A      4.920499   232A      5.149566  

    Final Occupation by Irrep:
              A 
    DOCC [    64 ]

  Energy converged.

  @DF-RHF Final Energy: -1908.87600062622073

   => Energetics <=

    Nuclear Repulsion Energy =           1185.5427284511004018
    One-Electron Energy =               -4989.0047644875749029
    Two-Electron Energy =                1894.5860354102535439
    Total Energy =                      -1908.8760006262207298



Properties will be evaluated at   0.000000,   0.000000,   0.000000 [a0]

Properties computed using the SCF density matrix

  Nuclear Dipole Moment: [e a0]
     X:     6.6517      Y:    10.2114      Z:     5.9048

  Electronic Dipole Moment: [e a0]
     X:    -5.9907      Y:    -9.5481      Z:    -5.6332

  Dipole Moment: [e a0]
     X:     0.6610      Y:     0.6633      Z:     0.2716     Total:     0.9751

  Dipole Moment: [D]
     X:     1.6801      Y:     1.6860      Z:     0.6904     Total:     2.4783


*** tstop() called on wr60 at Thu Sep 27 12:49:33 2018
Module time:
	user time   =      86.79 seconds =       1.45 minutes
	system time =       2.57 seconds =       0.04 minutes
	total time  =          6 seconds =       0.10 minutes
Total time:
	user time   =      86.79 seconds =       1.45 minutes
	system time =       2.57 seconds =       0.04 minutes
	total time  =          6 seconds =       0.10 minutes

*** tstart() called on wr60
*** at Thu Sep 27 12:49:33 2018


         ------------------------------------------------------------
                                   SCF GRAD                          
                          Rob Parrish, Justin Turney,                
                       Andy Simmonett, and Alex Sokolov              
         ------------------------------------------------------------

  ==> Geometry <==

    Molecular point group: c1
    Full point group: C1

    Geometry (in Angstrom), charge = 0, multiplicity = 1:

       Center              X                  Y                   Z               Mass       
    ------------   -----------------  -----------------  -----------------  -----------------
         C            1.224680092236    -0.551914602636    -0.721593459657    12.000000000000
         O            1.274808226208     1.743915686865    -0.060956905884    15.994914619560
         C            0.584651490399     0.597678780140    -0.277648071288    12.000000000000
         C           -0.787274533482     0.582497478757    -0.114536874038    12.000000000000
         H           -1.283205753805     1.471164408355     0.221796817365     1.007825032070
         O            0.263936309764     2.175335771007     2.910190624366    15.994914619560
         C           -1.521500917892    -0.559381938820    -0.383336402389    12.000000000000
         C           -0.875441271367    -1.705857045675    -0.819874448081    12.000000000000
         C            0.498660996942    -1.694777449099    -0.987930016515    12.000000000000
         H            0.998615196383    -2.578204670406    -1.332029984472     1.007825032070
         C            1.910539867529     1.902819073684     1.191409130665    12.000000000000
         H            2.818068478217     2.457339301595     1.013173874197     1.007825032070
         H            2.135607684911     0.949217189067     1.644166116171     1.007825032070
         C            0.988147609399     2.676382313974     2.115132791600    12.000000000000
         O            1.056731639452     3.983272933059     1.911305869402    15.994914619560
         H            0.432427558096     4.415845340202     2.486817510670     1.007825032070
         CL          -1.734514587046    -3.167326346818    -1.172673833851    34.968852682000
         CL           2.942798107675    -0.562724331639    -0.961007222578    34.968852682000
         CL          -3.236528860592    -0.506218468587    -0.160628874344    34.968852682000

  Nuclear repulsion = 1185.542728451100402

  ==> Basis Set <==

  Basis Set: 6-31G(D)
    Blend: 6-31G(D)
    Number of shells: 100
    Number of basis function: 232
    Number of Cartesian functions: 232
    Spherical Harmonics?: false
    Max angular momentum: 2

  ==> DFJKGrad: Density-Fitted SCF Gradients <==

    Gradient:                    1
    J tasked:                  Yes
    K tasked:                  Yes
    wK tasked:                  No
    OpenMP threads:             16
    Integrals threads:          16
    Memory (MB):             78678
    Schwarz Cutoff:          0E+00
    Fitting Condition:       1E-12

   => Auxiliary Basis Set <=

  Basis Set: (6-31G(D) AUX)
    Blend: CC-PVDZ-JKFIT
    Number of shells: 417
    Number of basis function: 1406
    Number of Cartesian functions: 1406
    Spherical Harmonics?: false
    Max angular momentum: 3


  -Total Gradient:
     Atom            X                  Y                   Z
    ------   -----------------  -----------------  -----------------
       1        0.000000289698     0.000001475154    -0.000000782164
       2        0.000000438430     0.000000857729     0.000000080266
       3        0.000001611549    -0.000001583693     0.000002546335
       4        0.000000201779     0.000000703446     0.000000416298
       5        0.000000021412     0.000000213452     0.000000035595
       6       -0.000000352107     0.000001305678    -0.000000001040
       7       -0.000000593196     0.000001723568    -0.000002057543
       8        0.000000500371    -0.000001312327     0.000001326148
       9       -0.000000972091    -0.000000448522    -0.000000355980
      10        0.000000380288    -0.000000222116    -0.000000053465
      11       -0.000001836972    -0.000001262067    -0.000001654264
      12        0.000000007555     0.000000063931    -0.000000890557
      13        0.000000120007     0.000000102412     0.000000087277
      14        0.000001067691    -0.000001011547     0.000000152668
      15       -0.000000331859    -0.000000405610     0.000001018182
      16       -0.000000535614     0.000000206679    -0.000000180774
      17       -0.000000158947    -0.000000005356    -0.000000148569
      18        0.000000067519    -0.000000054612     0.000000066384
      19        0.000000074568    -0.000000346230     0.000000395228


*** tstop() called on wr60 at Thu Sep 27 12:49:37 2018
Module time:
	user time   =      56.38 seconds =       0.94 minutes
	system time =       1.33 seconds =       0.02 minutes
	total time  =          4 seconds =       0.07 minutes
Total time:
	user time   =     143.21 seconds =       2.39 minutes
	system time =       3.90 seconds =       0.07 minutes
	total time  =         10 seconds =       0.17 minutes

  Based on options and gradient (rms=1.90E-06), recommend projecting translations and projecting rotations.
hessian() will perform frequency computation by finite difference of analytic gradients.

-------------------------------------------------------------

  Using finite-differences of gradients to determine vibrational frequencies and 
  normal modes.  Resulting frequencies are only valid at stationary points.
	Generating geometries for use with 3-point formula.
	Displacement size will be 5.00e-03.
	Number of atoms is 19.
	Number of irreps is 1.
	Number of SALCS is 51.
	Translations projected? 1. Rotations projected? 1.
	Index of salcs per irrep:
	 1 :  0  1  2  3  4  5  6  7  8  9  10  11  12  13  14  15  16  17  18  19  20  21  22  23  24  25  26  27  28  29  30  31  32  33  34  35  36  37  38  39  40  41  42  43  44  45  46  47  48  49  50 
	Number of SALC's per irrep:
		 Irrep 1: 51
	Number of geometries (including reference) is 103.
	Number of displacements per irrep:
	  Irrep 1: 102

  //>>>>>>>>>>>>>>>>>>>>>>>>>>>>>>>>>>>//
  //   Loading displacement 1 of 103   //
  //<<<<<<<<<<<<<<<<<<<<<<<<<<<<<<<<<<<//
gradient() will perform analytic gradient computation.

*** tstart() called on wr60
*** at Thu Sep 27 12:49:37 2018

   => Loading Basis Set <=

    Name: 6-31G(D)
    Role: ORBITAL
    Keyword: BASIS
    atoms 1, 3-4, 7-9, 11, 14 entry C          line   111 file /usr/local/hpc1/software_molmod/psi4/psi4conda/share/psi4/basis/6-31g_d_.gbs 
    atoms 2, 6, 15            entry O          line   145 file /usr/local/hpc1/software_molmod/psi4/psi4conda/share/psi4/basis/6-31g_d_.gbs 
    atoms 5, 10, 12-13, 16    entry H          line    44 file /usr/local/hpc1/software_molmod/psi4/psi4conda/share/psi4/basis/6-31g_d_.gbs 
    atoms 17-19               entry CL         line   340 file /usr/local/hpc1/software_molmod/psi4/psi4conda/share/psi4/basis/6-31g_d_.gbs 


         ---------------------------------------------------------
                                   SCF
            by Justin Turney, Rob Parrish, Andy Simmonett
                             and Daniel Smith
                              RHF Reference
                       16 Threads, 104904 MiB Core
         ---------------------------------------------------------

  ==> Geometry <==

    Molecular point group: c1
    Full point group: C1

    Geometry (in Angstrom), charge = 0, multiplicity = 1:

       Center              X                  Y                   Z               Mass       
    ------------   -----------------  -----------------  -----------------  -----------------
         C            1.223936683299    -0.551914013755    -0.721586681043    12.000000000000
         O            1.274843415341     1.743917212338    -0.060952915031    15.994914619560
         C            0.584689193894     0.597679149630    -0.277645973788    12.000000000000
         C           -0.787237616497     0.582496335479    -0.114541532660    12.000000000000
         H           -1.283171617619     1.471163084951     0.221788534327     1.007825032070
         O            0.263956280331     2.175339951136     2.910189051950    15.994914619560
         C           -1.521461234661    -0.559384362496    -0.383343177793    12.000000000000
         C           -0.875397987610    -1.705859232568    -0.819876516705    12.000000000000
         C            0.498705096798    -1.694778127020    -0.987925312845    12.000000000000
         H            0.998662108796    -2.578205173400    -1.332021643443     1.007825032070
         C            1.910568670802     1.902823055856     1.191416051424    12.000000000000
         H            2.818097463215     2.457344191468     1.013184544266     1.007825032070
         H            2.135635453329     0.949222053388     1.644175409353     1.007825032070
         C            0.988170875659     2.676386355341     2.115134133754    12.000000000000
         O            1.056754265966     3.983276791349     1.911305822444    15.994914619560
         H            0.432446797077     4.415849172856     2.486813808249     1.007825032070
         CL          -1.734467719518    -3.167330082455    -1.172678213363    34.968852682000
         CL           2.942840648338    -0.562721894721    -0.960991943573    34.968852682000
         CL          -3.236490344333    -0.506222758494    -0.160644190873    34.968852682000

  Running in c1 symmetry.

  Rotational constants: A =      0.02139  B =      0.01040  C =      0.00739 [cm^-1]
  Rotational constants: A =    641.34247  B =    311.68798  C =    221.51233 [MHz]
  Nuclear repulsion = 1185.546936611977799

  Charge       = 0
  Multiplicity = 1
  Electrons    = 128
  Nalpha       = 64
  Nbeta        = 64

  ==> Algorithm <==

  SCF Algorithm Type is DF.
  DIIS enabled.
  MOM disabled.
  Fractional occupation disabled.
  Guess Type is SAD.
  Energy threshold   = 1.00e-08
  Density threshold  = 1.00e-08
  Integral threshold = 0.00e+00

  ==> Primary Basis <==

  Basis Set: 6-31G(D)
    Blend: 6-31G(D)
    Number of shells: 100
    Number of basis function: 232
    Number of Cartesian functions: 232
    Spherical Harmonics?: false
    Max angular momentum: 2

   => Loading Basis Set <=

    Name: (6-31G(D) AUX)
    Role: JKFIT
    Keyword: DF_BASIS_SCF
    atoms 1, 3-4, 7-9, 11, 14 entry C          line   121 file /usr/local/hpc1/software_molmod/psi4/psi4conda/share/psi4/basis/cc-pvdz-jkfit.gbs 
    atoms 2, 6, 15            entry O          line   221 file /usr/local/hpc1/software_molmod/psi4/psi4conda/share/psi4/basis/cc-pvdz-jkfit.gbs 
    atoms 5, 10, 12-13, 16    entry H          line    51 file /usr/local/hpc1/software_molmod/psi4/psi4conda/share/psi4/basis/cc-pvdz-jkfit.gbs 
    atoms 17-19               entry CL         line   667 file /usr/local/hpc1/software_molmod/psi4/psi4conda/share/psi4/basis/cc-pvdz-jkfit.gbs 

  ==> Pre-Iterations <==

   -------------------------------------------------------
    Irrep   Nso     Nmo     Nalpha   Nbeta   Ndocc  Nsocc
   -------------------------------------------------------
     A        232     232       0       0       0       0
   -------------------------------------------------------
    Total     232     232      64      64      64       0
   -------------------------------------------------------

  ==> Integral Setup <==

  ==> DiskDFJK: Density-Fitted J/K Matrices <==

    J tasked:                  Yes
    K tasked:                  Yes
    wK tasked:                  No
    OpenMP threads:             16
    Integrals threads:          16
    Memory (MB):             78678
    Algorithm:                Core
    Integral Cache:           NONE
    Schwarz Cutoff:          1E-12
    Fitting Condition:       1E-12

   => Auxiliary Basis Set <=

  Basis Set: (6-31G(D) AUX)
    Blend: CC-PVDZ-JKFIT
    Number of shells: 417
    Number of basis function: 1406
    Number of Cartesian functions: 1406
    Spherical Harmonics?: false
    Max angular momentum: 3

  Minimum eigenvalue in the overlap matrix is 3.6605291094E-04.
  Using Symmetric Orthogonalization.

  SCF Guess: Superposition of Atomic Densities via on-the-fly atomic UHF.

  ==> Iterations <==

                           Total Energy        Delta E     RMS |[F,P]|

   @DF-RHF iter   0: -1917.25773226089427   -1.91726e+03   1.20062e-01 
   @DF-RHF iter   1: -1908.42917716109991    8.82856e+00   1.49526e-02 
   @DF-RHF iter   2: -1908.73855378941016   -3.09377e-01   9.26602e-03 DIIS
   @DF-RHF iter   3: -1908.86668598645952   -1.28132e-01   1.73226e-03 DIIS
   @DF-RHF iter   4: -1908.87465449826254   -7.96851e-03   6.18547e-04 DIIS
   @DF-RHF iter   5: -1908.87576321858705   -1.10872e-03   2.30892e-04 DIIS
   @DF-RHF iter   6: -1908.87596042520727   -1.97207e-04   8.71770e-05 DIIS
   @DF-RHF iter   7: -1908.87599603105468   -3.56058e-05   2.67541e-05 DIIS
   @DF-RHF iter   8: -1908.87599938009657   -3.34904e-06   1.05596e-05 DIIS
   @DF-RHF iter   9: -1908.87599984292342   -4.62827e-07   3.71150e-06 DIIS
   @DF-RHF iter  10: -1908.87599991415800   -7.12346e-08   1.41050e-06 DIIS
   @DF-RHF iter  11: -1908.87599992615742   -1.19994e-08   6.35833e-07 DIIS
   @DF-RHF iter  12: -1908.87599992874857   -2.59115e-09   3.12578e-07 DIIS
   @DF-RHF iter  13: -1908.87599992940409   -6.55518e-10   1.32565e-07 DIIS
   @DF-RHF iter  14: -1908.87599992955597   -1.51886e-10   5.23065e-08 DIIS
   @DF-RHF iter  15: -1908.87599992957371   -1.77351e-11   1.99285e-08 DIIS
   @DF-RHF iter  16: -1908.87599992957576   -2.04636e-12   8.69566e-09 DIIS

  ==> Post-Iterations <==

    Orbital Energies [Eh]
    ---------------------

    Doubly Occupied:                                                      

       1A   -104.848892     2A   -104.844731     3A   -104.844457  
       4A    -20.634943     5A    -20.618724     6A    -20.575847  
       7A    -11.402425     8A    -11.336426     9A    -11.334217  
      10A    -11.331680    11A    -11.327603    12A    -11.320828  
      13A    -11.281944    14A    -11.273485    15A    -10.581914  
      16A    -10.577957    17A    -10.577729    18A     -8.051359  
      19A     -8.047915    20A     -8.047856    21A     -8.047404  
      22A     -8.047177    23A     -8.043867    24A     -8.043862  
      25A     -8.043637    26A     -8.043616    27A     -1.499501  
      28A     -1.446729    29A     -1.390154    30A     -1.242563  
      31A     -1.185599    32A     -1.152271    33A     -1.113041  
      34A     -1.054207    35A     -1.020288    36A     -0.980369  
      37A     -0.881626    38A     -0.864022    39A     -0.822728  
      40A     -0.748247    41A     -0.740006    42A     -0.722670  
      43A     -0.701493    44A     -0.686370    45A     -0.674824  
      46A     -0.648900    47A     -0.635300    48A     -0.614020  
      49A     -0.607488    50A     -0.591964    51A     -0.573711  
      52A     -0.566337    53A     -0.548530    54A     -0.528721  
      55A     -0.512981    56A     -0.499294    57A     -0.498603  
      58A     -0.483938    59A     -0.473439    60A     -0.459162  
      61A     -0.457776    62A     -0.449645    63A     -0.364535  
      64A     -0.345027  

    Virtual:                                                              

      65A      0.098557    66A      0.105886    67A      0.149047  
      68A      0.160462    69A      0.205036    70A      0.215298  
      71A      0.236553    72A      0.271228    73A      0.275660  
      74A      0.289131    75A      0.304278    76A      0.321884  
      77A      0.343587    78A      0.367518    79A      0.397350  
      80A      0.425217    81A      0.435159    82A      0.447830  
      83A      0.475521    84A      0.494430    85A      0.508637  
      86A      0.529190    87A      0.539803    88A      0.571543  
      89A      0.584743    90A      0.600376    91A      0.605234  
      92A      0.618500    93A      0.628291    94A      0.636003  
      95A      0.655066    96A      0.665030    97A      0.676871  
      98A      0.685899    99A      0.710383   100A      0.719852  
     101A      0.739290   102A      0.752893   103A      0.766157  
     104A      0.795043   105A      0.808420   106A      0.812562  
     107A      0.822219   108A      0.844256   109A      0.851546  
     110A      0.881663   111A      0.890167   112A      0.913148  
     113A      0.925170   114A      0.938306   115A      0.960977  
     116A      0.970222   117A      0.997925   118A      1.007848  
     119A      1.033730   120A      1.043938   121A      1.048771  
     122A      1.067703   123A      1.080223   124A      1.097303  
     125A      1.115653   126A      1.120412   127A      1.125575  
     128A      1.131240   129A      1.133488   130A      1.136492  
     131A      1.143621   132A      1.146969   133A      1.159494  
     134A      1.190640   135A      1.195381   136A      1.210611  
     137A      1.214783   138A      1.225833   139A      1.255030  
     140A      1.263123   141A      1.280419   142A      1.300209  
     143A      1.316821   144A      1.320913   145A      1.330026  
     146A      1.336069   147A      1.375718   148A      1.416249  
     149A      1.420913   150A      1.430654   151A      1.455048  
     152A      1.470755   153A      1.476649   154A      1.551425  
     155A      1.580121   156A      1.596729   157A      1.630009  
     158A      1.635051   159A      1.662669   160A      1.678449  
     161A      1.689852   162A      1.700088   163A      1.753345  
     164A      1.784523   165A      1.796832   166A      1.824167  
     167A      1.833945   168A      1.859981   169A      1.916622  
     170A      1.966597   171A      1.980527   172A      2.022510  
     173A      2.038226   174A      2.074194   175A      2.084372  
     176A      2.105029   177A      2.132888   178A      2.136001  
     179A      2.189973   180A      2.221048   181A      2.225391  
     182A      2.244176   183A      2.265399   184A      2.314857  
     185A      2.321750   186A      2.341183   187A      2.385816  
     188A      2.413027   189A      2.421297   190A      2.442228  
     191A      2.454992   192A      2.505736   193A      2.518918  
     194A      2.580856   195A      2.588472   196A      2.593901  
     197A      2.634323   198A      2.668730   199A      2.768881  
     200A      2.834132   201A      2.854979   202A      2.874438  
     203A      2.897269   204A      2.973752   205A      3.001787  
     206A      3.036357   207A      3.072270   208A      3.081438  
     209A      3.096870   210A      3.115470   211A      3.186428  
     212A      3.219072   213A      3.229191   214A      3.345964  
     215A      3.399109   216A      3.462911   217A      3.487643  
     218A      3.712329   219A      4.277468   220A      4.417449  
     221A      4.437402   222A      4.486593   223A      4.512830  
     224A      4.602331   225A      4.638168   226A      4.665598  
     227A      4.726814   228A      4.749043   229A      4.798737  
     230A      4.872762   231A      4.920498   232A      5.149815  

    Final Occupation by Irrep:
              A 
    DOCC [    64 ]

  Energy converged.

  @DF-RHF Final Energy: -1908.87599992957576

   => Energetics <=

    Nuclear Repulsion Energy =           1185.5469366119777987
    One-Electron Energy =               -4989.0127246479887617
    Two-Electron Energy =                1894.5897881064352077
    Total Energy =                      -1908.8759999295757552



Properties will be evaluated at   0.000000,   0.000000,   0.000000 [a0]

Properties computed using the SCF density matrix

  Nuclear Dipole Moment: [e a0]
     X:     6.6517      Y:    10.2115      Z:     5.9049

  Electronic Dipole Moment: [e a0]
     X:    -5.9923      Y:    -9.5482      Z:    -5.6329

  Dipole Moment: [e a0]
     X:     0.6595      Y:     0.6633      Z:     0.2719     Total:     0.9741

  Dipole Moment: [D]
     X:     1.6762      Y:     1.6859      Z:     0.6912     Total:     2.4758


*** tstop() called on wr60 at Thu Sep 27 12:49:44 2018
Module time:
	user time   =      93.92 seconds =       1.57 minutes
	system time =       2.24 seconds =       0.04 minutes
	total time  =          7 seconds =       0.12 minutes
Total time:
	user time   =     237.33 seconds =       3.96 minutes
	system time =       6.14 seconds =       0.10 minutes
	total time  =         17 seconds =       0.28 minutes

*** tstart() called on wr60
*** at Thu Sep 27 12:49:44 2018


         ------------------------------------------------------------
                                   SCF GRAD                          
                          Rob Parrish, Justin Turney,                
                       Andy Simmonett, and Alex Sokolov              
         ------------------------------------------------------------

  ==> Geometry <==

    Molecular point group: c1
    Full point group: C1

    Geometry (in Angstrom), charge = 0, multiplicity = 1:

       Center              X                  Y                   Z               Mass       
    ------------   -----------------  -----------------  -----------------  -----------------
         C            1.223936683299    -0.551914013755    -0.721586681043    12.000000000000
         O            1.274843415341     1.743917212338    -0.060952915031    15.994914619560
         C            0.584689193894     0.597679149630    -0.277645973788    12.000000000000
         C           -0.787237616497     0.582496335479    -0.114541532660    12.000000000000
         H           -1.283171617619     1.471163084951     0.221788534327     1.007825032070
         O            0.263956280331     2.175339951136     2.910189051950    15.994914619560
         C           -1.521461234661    -0.559384362496    -0.383343177793    12.000000000000
         C           -0.875397987610    -1.705859232568    -0.819876516705    12.000000000000
         C            0.498705096798    -1.694778127020    -0.987925312845    12.000000000000
         H            0.998662108796    -2.578205173400    -1.332021643443     1.007825032070
         C            1.910568670802     1.902823055856     1.191416051424    12.000000000000
         H            2.818097463215     2.457344191468     1.013184544266     1.007825032070
         H            2.135635453329     0.949222053388     1.644175409353     1.007825032070
         C            0.988170875659     2.676386355341     2.115134133754    12.000000000000
         O            1.056754265966     3.983276791349     1.911305822444    15.994914619560
         H            0.432446797077     4.415849172856     2.486813808249     1.007825032070
         CL          -1.734467719518    -3.167330082455    -1.172678213363    34.968852682000
         CL           2.942840648338    -0.562721894721    -0.960991943573    34.968852682000
         CL          -3.236490344333    -0.506222758494    -0.160644190873    34.968852682000

  Nuclear repulsion = 1185.546936611977799

  ==> Basis Set <==

  Basis Set: 6-31G(D)
    Blend: 6-31G(D)
    Number of shells: 100
    Number of basis function: 232
    Number of Cartesian functions: 232
    Spherical Harmonics?: false
    Max angular momentum: 2

  ==> DFJKGrad: Density-Fitted SCF Gradients <==

    Gradient:                    1
    J tasked:                  Yes
    K tasked:                  Yes
    wK tasked:                  No
    OpenMP threads:             16
    Integrals threads:          16
    Memory (MB):             78678
    Schwarz Cutoff:          0E+00
    Fitting Condition:       1E-12

   => Auxiliary Basis Set <=

  Basis Set: (6-31G(D) AUX)
    Blend: CC-PVDZ-JKFIT
    Number of shells: 417
    Number of basis function: 1406
    Number of Cartesian functions: 1406
    Spherical Harmonics?: false
    Max angular momentum: 3


  -Total Gradient:
     Atom            X                  Y                   Z
    ------   -----------------  -----------------  -----------------
       1       -0.000937701758    -0.000049778419     0.000078681188
       2       -0.000006327534     0.000046535603     0.000019367155
       3        0.000273096107    -0.000201222649    -0.000079555269
       4        0.000033788028    -0.000038990580    -0.000018246344
       5        0.000007772023     0.000001306756    -0.000001689571
       6       -0.000000096200     0.000002346030     0.000000077867
       7        0.000001077153     0.000004195113    -0.000001024935
       8        0.000047870933     0.000038518970     0.000006592241
       9        0.000299752404     0.000219247127     0.000044886114
      10       -0.000020244507    -0.000023331142    -0.000005983343
      11       -0.000007801944     0.000003150222    -0.000008071769
      12        0.000000459790     0.000001309440     0.000000134191
      13       -0.000001119204    -0.000001157895     0.000001363012
      14        0.000002206753    -0.000003402603     0.000001835058
      15       -0.000000331540     0.000000820433     0.000001011344
      16       -0.000000616040    -0.000000237437    -0.000000511174
      17        0.000002683581    -0.000001479025    -0.000002050985
      18        0.000305278509     0.000001950588    -0.000037473286
      19        0.000000253534     0.000000219592     0.000000658511


*** tstop() called on wr60 at Thu Sep 27 12:49:48 2018
Module time:
	user time   =      58.03 seconds =       0.97 minutes
	system time =       1.24 seconds =       0.02 minutes
	total time  =          4 seconds =       0.07 minutes
Total time:
	user time   =     295.39 seconds =       4.92 minutes
	system time =       7.38 seconds =       0.12 minutes
	total time  =         21 seconds =       0.35 minutes

  //>>>>>>>>>>>>>>>>>>>>>>>>>>>>>>>>>>>//
  //   Loading displacement 2 of 103   //
  //<<<<<<<<<<<<<<<<<<<<<<<<<<<<<<<<<<<//
gradient() will perform analytic gradient computation.

*** tstart() called on wr60
*** at Thu Sep 27 12:49:48 2018

   => Loading Basis Set <=

    Name: 6-31G(D)
    Role: ORBITAL
    Keyword: BASIS
    atoms 1, 3-4, 7-9, 11, 14 entry C          line   111 file /usr/local/hpc1/software_molmod/psi4/psi4conda/share/psi4/basis/6-31g_d_.gbs 
    atoms 2, 6, 15            entry O          line   145 file /usr/local/hpc1/software_molmod/psi4/psi4conda/share/psi4/basis/6-31g_d_.gbs 
    atoms 5, 10, 12-13, 16    entry H          line    44 file /usr/local/hpc1/software_molmod/psi4/psi4conda/share/psi4/basis/6-31g_d_.gbs 
    atoms 17-19               entry CL         line   340 file /usr/local/hpc1/software_molmod/psi4/psi4conda/share/psi4/basis/6-31g_d_.gbs 


         ---------------------------------------------------------
                                   SCF
            by Justin Turney, Rob Parrish, Andy Simmonett
                             and Daniel Smith
                              RHF Reference
                       16 Threads, 104904 MiB Core
         ---------------------------------------------------------

  ==> Geometry <==

    Molecular point group: c1
    Full point group: C1

    Geometry (in Angstrom), charge = 0, multiplicity = 1:

       Center              X                  Y                   Z               Mass       
    ------------   -----------------  -----------------  -----------------  -----------------
         C            1.225423501174    -0.551915191517    -0.721600238271    12.000000000000
         O            1.274773037076     1.743914161392    -0.060960896736    15.994914619560
         C            0.584613786904     0.597678410650    -0.277650168788    12.000000000000
         C           -0.787311450467     0.582498622035    -0.114532215416    12.000000000000
         H           -1.283239889990     1.471165731759     0.221805100403     1.007825032070
         O            0.263916339197     2.175331590878     2.910192196782    15.994914619560
         C           -1.521540601122    -0.559379515144    -0.383329626985    12.000000000000
         C           -0.875484555124    -1.705854858782    -0.819872379457    12.000000000000
         C            0.498616897086    -1.694776771178    -0.987934720185    12.000000000000
         H            0.998568283970    -2.578204167412    -1.332038325501     1.007825032070
         C            1.910511064256     1.902815091512     1.191402209907    12.000000000000
         H            2.818039493219     2.457334411722     1.013163204129     1.007825032070
         H            2.135579916493     0.949212324746     1.644156822989     1.007825032070
         C            0.988124343139     2.676378272607     2.115131449446    12.000000000000
         O            1.056709012938     3.983269074769     1.911305916360    15.994914619560
         H            0.432408319115     4.415841507548     2.486821213091     1.007825032070
         CL          -1.734561454574    -3.167322611181    -1.172669454339    34.968852682000
         CL           2.942755567012    -0.562726768557    -0.961022501583    34.968852682000
         CL          -3.236567376851    -0.506214178680    -0.160613557815    34.968852682000

  Running in c1 symmetry.

  Rotational constants: A =      0.02139  B =      0.01040  C =      0.00739 [cm^-1]
  Rotational constants: A =    641.30471  B =    311.68816  C =    221.50778 [MHz]
  Nuclear repulsion = 1185.538532476245337

  Charge       = 0
  Multiplicity = 1
  Electrons    = 128
  Nalpha       = 64
  Nbeta        = 64

  ==> Algorithm <==

  SCF Algorithm Type is DF.
  DIIS enabled.
  MOM disabled.
  Fractional occupation disabled.
  Guess Type is SAD.
  Energy threshold   = 1.00e-08
  Density threshold  = 1.00e-08
  Integral threshold = 0.00e+00

  ==> Primary Basis <==

  Basis Set: 6-31G(D)
    Blend: 6-31G(D)
    Number of shells: 100
    Number of basis function: 232
    Number of Cartesian functions: 232
    Spherical Harmonics?: false
    Max angular momentum: 2

   => Loading Basis Set <=

    Name: (6-31G(D) AUX)
    Role: JKFIT
    Keyword: DF_BASIS_SCF
    atoms 1, 3-4, 7-9, 11, 14 entry C          line   121 file /usr/local/hpc1/software_molmod/psi4/psi4conda/share/psi4/basis/cc-pvdz-jkfit.gbs 
    atoms 2, 6, 15            entry O          line   221 file /usr/local/hpc1/software_molmod/psi4/psi4conda/share/psi4/basis/cc-pvdz-jkfit.gbs 
    atoms 5, 10, 12-13, 16    entry H          line    51 file /usr/local/hpc1/software_molmod/psi4/psi4conda/share/psi4/basis/cc-pvdz-jkfit.gbs 
    atoms 17-19               entry CL         line   667 file /usr/local/hpc1/software_molmod/psi4/psi4conda/share/psi4/basis/cc-pvdz-jkfit.gbs 

  ==> Pre-Iterations <==

   -------------------------------------------------------
    Irrep   Nso     Nmo     Nalpha   Nbeta   Ndocc  Nsocc
   -------------------------------------------------------
     A        232     232       0       0       0       0
   -------------------------------------------------------
    Total     232     232      64      64      64       0
   -------------------------------------------------------

  ==> Integral Setup <==

  ==> DiskDFJK: Density-Fitted J/K Matrices <==

    J tasked:                  Yes
    K tasked:                  Yes
    wK tasked:                  No
    OpenMP threads:             16
    Integrals threads:          16
    Memory (MB):             78678
    Algorithm:                Core
    Integral Cache:           NONE
    Schwarz Cutoff:          1E-12
    Fitting Condition:       1E-12

   => Auxiliary Basis Set <=

  Basis Set: (6-31G(D) AUX)
    Blend: CC-PVDZ-JKFIT
    Number of shells: 417
    Number of basis function: 1406
    Number of Cartesian functions: 1406
    Spherical Harmonics?: false
    Max angular momentum: 3

  Minimum eigenvalue in the overlap matrix is 3.6684579107E-04.
  Using Symmetric Orthogonalization.

  SCF Guess: Superposition of Atomic Densities via on-the-fly atomic UHF.

  ==> Iterations <==

                           Total Energy        Delta E     RMS |[F,P]|

   @DF-RHF iter   0: -1916.60468876655341   -1.91660e+03   1.17672e-01 
   @DF-RHF iter   1: -1908.44233208221885    8.16236e+00   1.38072e-02 
   @DF-RHF iter   2: -1908.75096923763112   -3.08637e-01   8.42546e-03 DIIS
   @DF-RHF iter   3: -1908.86095112562066   -1.09982e-01   1.89760e-03 DIIS
   @DF-RHF iter   4: -1908.87395200143351   -1.30009e-02   6.83896e-04 DIIS
   @DF-RHF iter   5: -1908.87561102497625   -1.65902e-03   2.77128e-04 DIIS
   @DF-RHF iter   6: -1908.87594330216848   -3.32277e-04   1.09304e-04 DIIS
   @DF-RHF iter   7: -1908.87599391387926   -5.06117e-05   3.12766e-05 DIIS
   @DF-RHF iter   8: -1908.87599878797823   -4.87410e-06   1.38561e-05 DIIS
   @DF-RHF iter   9: -1908.87599969367011   -9.05692e-07   5.24728e-06 DIIS
   @DF-RHF iter  10: -1908.87599988562852   -1.91958e-07   2.22223e-06 DIIS
   @DF-RHF iter  11: -1908.87599991777074   -3.21422e-08   1.03692e-06 DIIS
   @DF-RHF iter  12: -1908.87599992425271   -6.48197e-09   4.24129e-07 DIIS
   @DF-RHF iter  13: -1908.87599992530454   -1.05183e-09   1.51397e-07 DIIS
   @DF-RHF iter  14: -1908.87599992545779   -1.53250e-10   5.30654e-08 DIIS
   @DF-RHF iter  15: -1908.87599992547075   -1.29603e-11   1.90093e-08 DIIS
   @DF-RHF iter  16: -1908.87599992547257   -1.81899e-12   8.25974e-09 DIIS

  ==> Post-Iterations <==

    Orbital Energies [Eh]
    ---------------------

    Doubly Occupied:                                                      

       1A   -104.849057     2A   -104.844697     3A   -104.844429  
       4A    -20.634930     5A    -20.618664     6A    -20.575831  
       7A    -11.402410     8A    -11.336436     9A    -11.334188  
      10A    -11.331628    11A    -11.327616    12A    -11.320811  
      13A    -11.281956    14A    -11.273437    15A    -10.582101  
      16A    -10.577923    17A    -10.577702    18A     -8.051548  
      19A     -8.048101    20A     -8.048041    21A     -8.047370  
      22A     -8.047149    23A     -8.043833    24A     -8.043828  
      25A     -8.043610    26A     -8.043589    27A     -1.499486  
      28A     -1.446689    29A     -1.390138    30A     -1.242461  
      31A     -1.185818    32A     -1.152229    33A     -1.113099  
      34A     -1.054108    35A     -1.020223    36A     -0.980254  
      37A     -0.881493    38A     -0.863996    39A     -0.822687  
      40A     -0.748170    41A     -0.739940    42A     -0.722649  
      43A     -0.701441    44A     -0.686341    45A     -0.674851  
      46A     -0.648726    47A     -0.635268    48A     -0.613995  
      49A     -0.607673    50A     -0.591901    51A     -0.573663  
      52A     -0.566445    53A     -0.548561    54A     -0.528879  
      55A     -0.512955    56A     -0.499279    57A     -0.498574  
      58A     -0.483931    59A     -0.473514    60A     -0.459122  
      61A     -0.457748    62A     -0.449604    63A     -0.364438  
      64A     -0.344885  

    Virtual:                                                              

      65A      0.098481    66A      0.105942    67A      0.149211  
      68A      0.160485    69A      0.205309    70A      0.215308  
      71A      0.236585    72A      0.271229    73A      0.275685  
      74A      0.289142    75A      0.304312    76A      0.321772  
      77A      0.343572    78A      0.367495    79A      0.397362  
      80A      0.425147    81A      0.435073    82A      0.447708  
      83A      0.475447    84A      0.494433    85A      0.508595  
      86A      0.529092    87A      0.539805    88A      0.571409  
      89A      0.584686    90A      0.600404    91A      0.605234  
      92A      0.618516    93A      0.628301    94A      0.635883  
      95A      0.655079    96A      0.665084    97A      0.676781  
      98A      0.685893    99A      0.710508   100A      0.719931  
     101A      0.739358   102A      0.752916   103A      0.766206  
     104A      0.795085   105A      0.808409   106A      0.812620  
     107A      0.822271   108A      0.844203   109A      0.851583  
     110A      0.881711   111A      0.890146   112A      0.913048  
     113A      0.925174   114A      0.938347   115A      0.960980  
     116A      0.970220   117A      0.998106   118A      1.007736  
     119A      1.033714   120A      1.043924   121A      1.048778  
     122A      1.067720   123A      1.080250   124A      1.097310  
     125A      1.115675   126A      1.120406   127A      1.125566  
     128A      1.131144   129A      1.133461   130A      1.136494  
     131A      1.143618   132A      1.146891   133A      1.159438  
     134A      1.190461   135A      1.195413   136A      1.210639  
     137A      1.214772   138A      1.225902   139A      1.254968  
     140A      1.263090   141A      1.280434   142A      1.300394  
     143A      1.316749   144A      1.320998   145A      1.330077  
     146A      1.336165   147A      1.375753   148A      1.416240  
     149A      1.421081   150A      1.430725   151A      1.454992  
     152A      1.470812   153A      1.476386   154A      1.551481  
     155A      1.580121   156A      1.596707   157A      1.630108  
     158A      1.634996   159A      1.662664   160A      1.678389  
     161A      1.689925   162A      1.700209   163A      1.753388  
     164A      1.784511   165A      1.796895   166A      1.824231  
     167A      1.833998   168A      1.859978   169A      1.916610  
     170A      1.966516   171A      1.980432   172A      2.022260  
     173A      2.038118   174A      2.073994   175A      2.084536  
     176A      2.104851   177A      2.132834   178A      2.136116  
     179A      2.190024   180A      2.221110   181A      2.225693  
     182A      2.244147   183A      2.265390   184A      2.314923  
     185A      2.321769   186A      2.341011   187A      2.385561  
     188A      2.412918   189A      2.421079   190A      2.442037  
     191A      2.454944   192A      2.505659   193A      2.518892  
     194A      2.580447   195A      2.588346   196A      2.593934  
     197A      2.634265   198A      2.668761   199A      2.768864  
     200A      2.834093   201A      2.854909   202A      2.874326  
     203A      2.897177   204A      2.973468   205A      3.001476  
     206A      3.036425   207A      3.071805   208A      3.080596  
     209A      3.096779   210A      3.115277   211A      3.186619  
     212A      3.219045   213A      3.229182   214A      3.345998  
     215A      3.399060   216A      3.462933   217A      3.487306  
     218A      3.711746   219A      4.277455   220A      4.417345  
     221A      4.437228   222A      4.486478   223A      4.512719  
     224A      4.602200   225A      4.638156   226A      4.665576  
     227A      4.726798   228A      4.748998   229A      4.798921  
     230A      4.872602   231A      4.920500   232A      5.149317  

    Final Occupation by Irrep:
              A 
    DOCC [    64 ]

  Energy converged.

  @DF-RHF Final Energy: -1908.87599992547257

   => Energetics <=

    Nuclear Repulsion Energy =           1185.5385324762453365
    One-Electron Energy =               -4988.9968252810167542
    Two-Electron Energy =                1894.5822928792986204
    Total Energy =                      -1908.8759999254725699



Properties will be evaluated at   0.000000,   0.000000,   0.000000 [a0]

Properties computed using the SCF density matrix

  Nuclear Dipole Moment: [e a0]
     X:     6.6517      Y:    10.2114      Z:     5.9048

  Electronic Dipole Moment: [e a0]
     X:    -5.9891      Y:    -9.5481      Z:    -5.6335

  Dipole Moment: [e a0]
     X:     0.6626      Y:     0.6634      Z:     0.2713     Total:     0.9760

  Dipole Moment: [D]
     X:     1.6841      Y:     1.6861      Z:     0.6897     Total:     2.4809


*** tstop() called on wr60 at Thu Sep 27 12:49:56 2018
Module time:
	user time   =      93.07 seconds =       1.55 minutes
	system time =       2.29 seconds =       0.04 minutes
	total time  =          8 seconds =       0.13 minutes
Total time:
	user time   =     388.62 seconds =       6.48 minutes
	system time =       9.68 seconds =       0.16 minutes
	total time  =         29 seconds =       0.48 minutes

*** tstart() called on wr60
*** at Thu Sep 27 12:49:56 2018


         ------------------------------------------------------------
                                   SCF GRAD                          
                          Rob Parrish, Justin Turney,                
                       Andy Simmonett, and Alex Sokolov              
         ------------------------------------------------------------

  ==> Geometry <==

    Molecular point group: c1
    Full point group: C1

    Geometry (in Angstrom), charge = 0, multiplicity = 1:

       Center              X                  Y                   Z               Mass       
    ------------   -----------------  -----------------  -----------------  -----------------
         C            1.225423501174    -0.551915191517    -0.721600238271    12.000000000000
         O            1.274773037076     1.743914161392    -0.060960896736    15.994914619560
         C            0.584613786904     0.597678410650    -0.277650168788    12.000000000000
         C           -0.787311450467     0.582498622035    -0.114532215416    12.000000000000
         H           -1.283239889990     1.471165731759     0.221805100403     1.007825032070
         O            0.263916339197     2.175331590878     2.910192196782    15.994914619560
         C           -1.521540601122    -0.559379515144    -0.383329626985    12.000000000000
         C           -0.875484555124    -1.705854858782    -0.819872379457    12.000000000000
         C            0.498616897086    -1.694776771178    -0.987934720185    12.000000000000
         H            0.998568283970    -2.578204167412    -1.332038325501     1.007825032070
         C            1.910511064256     1.902815091512     1.191402209907    12.000000000000
         H            2.818039493219     2.457334411722     1.013163204129     1.007825032070
         H            2.135579916493     0.949212324746     1.644156822989     1.007825032070
         C            0.988124343139     2.676378272607     2.115131449446    12.000000000000
         O            1.056709012938     3.983269074769     1.911305916360    15.994914619560
         H            0.432408319115     4.415841507548     2.486821213091     1.007825032070
         CL          -1.734561454574    -3.167322611181    -1.172669454339    34.968852682000
         CL           2.942755567012    -0.562726768557    -0.961022501583    34.968852682000
         CL          -3.236567376851    -0.506214178680    -0.160613557815    34.968852682000

  Nuclear repulsion = 1185.538532476245337

  ==> Basis Set <==

  Basis Set: 6-31G(D)
    Blend: 6-31G(D)
    Number of shells: 100
    Number of basis function: 232
    Number of Cartesian functions: 232
    Spherical Harmonics?: false
    Max angular momentum: 2

  ==> DFJKGrad: Density-Fitted SCF Gradients <==

    Gradient:                    1
    J tasked:                  Yes
    K tasked:                  Yes
    wK tasked:                  No
    OpenMP threads:             16
    Integrals threads:          16
    Memory (MB):             78678
    Schwarz Cutoff:          0E+00
    Fitting Condition:       1E-12

   => Auxiliary Basis Set <=

  Basis Set: (6-31G(D) AUX)
    Blend: CC-PVDZ-JKFIT
    Number of shells: 417
    Number of basis function: 1406
    Number of Cartesian functions: 1406
    Spherical Harmonics?: false
    Max angular momentum: 3


  -Total Gradient:
     Atom            X                  Y                   Z
    ------   -----------------  -----------------  -----------------
       1        0.000939156190     0.000051732776    -0.000080602226
       2        0.000007213366    -0.000044754949    -0.000019295927
       3       -0.000270029974     0.000197542875     0.000084457991
       4       -0.000033257055     0.000040205571     0.000019007930
       5       -0.000007683991    -0.000001065918     0.000001708741
       6       -0.000000478539     0.000000341861    -0.000000209664
       7       -0.000001836366    -0.000001492628    -0.000003310122
       8       -0.000046464181    -0.000040662318    -0.000003854736
       9       -0.000301488414    -0.000218777944    -0.000045350535
      10        0.000020500754     0.000023319103     0.000006113383
      11        0.000004190568    -0.000005827965     0.000004944339
      12       -0.000000518174    -0.000001219842    -0.000001912209
      13        0.000001337650     0.000001469425    -0.000001238823
      14       -0.000000170108     0.000001405578    -0.000001457691
      15       -0.000000396454    -0.000001656321     0.000001090612
      16       -0.000000390000     0.000000605204     0.000000095894
      17       -0.000002955812     0.000001578339     0.000001768127
      18       -0.000306576074    -0.000001997826     0.000037861381
      19       -0.000000153144    -0.000000744981     0.000000183665


*** tstop() called on wr60 at Thu Sep 27 12:50:00 2018
Module time:
	user time   =      57.95 seconds =       0.97 minutes
	system time =       1.37 seconds =       0.02 minutes
	total time  =          4 seconds =       0.07 minutes
Total time:
	user time   =     446.60 seconds =       7.44 minutes
	system time =      11.06 seconds =       0.18 minutes
	total time  =         33 seconds =       0.55 minutes

  //>>>>>>>>>>>>>>>>>>>>>>>>>>>>>>>>>>>//
  //   Loading displacement 3 of 103   //
  //<<<<<<<<<<<<<<<<<<<<<<<<<<<<<<<<<<<//
gradient() will perform analytic gradient computation.

*** tstart() called on wr60
*** at Thu Sep 27 12:50:00 2018

   => Loading Basis Set <=

    Name: 6-31G(D)
    Role: ORBITAL
    Keyword: BASIS
    atoms 1, 3-4, 7-9, 11, 14 entry C          line   111 file /usr/local/hpc1/software_molmod/psi4/psi4conda/share/psi4/basis/6-31g_d_.gbs 
    atoms 2, 6, 15            entry O          line   145 file /usr/local/hpc1/software_molmod/psi4/psi4conda/share/psi4/basis/6-31g_d_.gbs 
    atoms 5, 10, 12-13, 16    entry H          line    44 file /usr/local/hpc1/software_molmod/psi4/psi4conda/share/psi4/basis/6-31g_d_.gbs 
    atoms 17-19               entry CL         line   340 file /usr/local/hpc1/software_molmod/psi4/psi4conda/share/psi4/basis/6-31g_d_.gbs 


         ---------------------------------------------------------
                                   SCF
            by Justin Turney, Rob Parrish, Andy Simmonett
                             and Daniel Smith
                              RHF Reference
                       16 Threads, 104904 MiB Core
         ---------------------------------------------------------

  ==> Geometry <==

    Molecular point group: c1
    Full point group: C1

    Geometry (in Angstrom), charge = 0, multiplicity = 1:

       Center              X                  Y                   Z               Mass       
    ------------   -----------------  -----------------  -----------------  -----------------
         C            1.224680092236    -0.552653056076    -0.721603333350    12.000000000000
         O            1.274794720421     1.743963110779    -0.060951311986    15.994914619560
         C            0.584645603205     0.597722450936    -0.277646889479    12.000000000000
         C           -0.787279493671     0.582529623407    -0.114528967978    12.000000000000
         H           -1.283215782802     1.471190487608     0.221813275461     1.007825032070
         O            0.263934318204     2.175355184668     2.910204202921    15.994914619560
         C           -1.521498551898    -0.559353524937    -0.383332659249    12.000000000000
         C           -0.875432379168    -1.705820741303    -0.819881769112    12.000000000000
         C            0.498668968649    -1.694729568220    -0.987944100709    12.000000000000
         H            0.998628158488    -2.578150640438    -1.332052604853     1.007825032070
         C            1.910531389184     1.902862747612     1.191412648318    12.000000000000
         H            2.818054905355     2.457391081588     1.013176671214     1.007825032070
         H            2.135608695434     0.949259471158     1.644161985357     1.007825032070
         C            0.988137859081     2.676412665501     2.115146195827    12.000000000000
         O            1.056710958629     3.983305200351     1.911327879156    15.994914619560
         H            0.432406459493     4.415868930673     2.486845588992     1.007825032070
         CL          -1.734496361848    -3.167294145433    -1.172686884318    34.968852682000
         CL           2.942797623917    -0.562658090162    -0.961025721479    34.968852682000
         CL          -3.236525789544    -0.506204592130    -0.160616231424    34.968852682000

  Running in c1 symmetry.

  Rotational constants: A =      0.02139  B =      0.01040  C =      0.00739 [cm^-1]
  Rotational constants: A =    641.31524  B =    311.68827  C =    221.50892 [MHz]
  Nuclear repulsion = 1185.538419409647986

  Charge       = 0
  Multiplicity = 1
  Electrons    = 128
  Nalpha       = 64
  Nbeta        = 64

  ==> Algorithm <==

  SCF Algorithm Type is DF.
  DIIS enabled.
  MOM disabled.
  Fractional occupation disabled.
  Guess Type is SAD.
  Energy threshold   = 1.00e-08
  Density threshold  = 1.00e-08
  Integral threshold = 0.00e+00

  ==> Primary Basis <==

  Basis Set: 6-31G(D)
    Blend: 6-31G(D)
    Number of shells: 100
    Number of basis function: 232
    Number of Cartesian functions: 232
    Spherical Harmonics?: false
    Max angular momentum: 2

   => Loading Basis Set <=

    Name: (6-31G(D) AUX)
    Role: JKFIT
    Keyword: DF_BASIS_SCF
    atoms 1, 3-4, 7-9, 11, 14 entry C          line   121 file /usr/local/hpc1/software_molmod/psi4/psi4conda/share/psi4/basis/cc-pvdz-jkfit.gbs 
    atoms 2, 6, 15            entry O          line   221 file /usr/local/hpc1/software_molmod/psi4/psi4conda/share/psi4/basis/cc-pvdz-jkfit.gbs 
    atoms 5, 10, 12-13, 16    entry H          line    51 file /usr/local/hpc1/software_molmod/psi4/psi4conda/share/psi4/basis/cc-pvdz-jkfit.gbs 
    atoms 17-19               entry CL         line   667 file /usr/local/hpc1/software_molmod/psi4/psi4conda/share/psi4/basis/cc-pvdz-jkfit.gbs 

  ==> Pre-Iterations <==

   -------------------------------------------------------
    Irrep   Nso     Nmo     Nalpha   Nbeta   Ndocc  Nsocc
   -------------------------------------------------------
     A        232     232       0       0       0       0
   -------------------------------------------------------
    Total     232     232      64      64      64       0
   -------------------------------------------------------

  ==> Integral Setup <==

  ==> DiskDFJK: Density-Fitted J/K Matrices <==

    J tasked:                  Yes
    K tasked:                  Yes
    wK tasked:                  No
    OpenMP threads:             16
    Integrals threads:          16
    Memory (MB):             78678
    Algorithm:                Core
    Integral Cache:           NONE
    Schwarz Cutoff:          1E-12
    Fitting Condition:       1E-12

   => Auxiliary Basis Set <=

  Basis Set: (6-31G(D) AUX)
    Blend: CC-PVDZ-JKFIT
    Number of shells: 417
    Number of basis function: 1406
    Number of Cartesian functions: 1406
    Spherical Harmonics?: false
    Max angular momentum: 3

  Minimum eigenvalue in the overlap matrix is 3.6643795919E-04.
  Using Symmetric Orthogonalization.

  SCF Guess: Superposition of Atomic Densities via on-the-fly atomic UHF.

  ==> Iterations <==

                           Total Energy        Delta E     RMS |[F,P]|

   @DF-RHF iter   0: -1913.75015696037872   -1.91375e+03   1.08192e-01 
   @DF-RHF iter   1: -1908.51169911183342    5.23846e+00   1.15609e-02 
   @DF-RHF iter   2: -1908.80773029843999   -2.96031e-01   5.63888e-03 DIIS
   @DF-RHF iter   3: -1908.86339613857831   -5.56658e-02   2.00658e-03 DIIS
   @DF-RHF iter   4: -1908.87479052352137   -1.13944e-02   5.27279e-04 DIIS
   @DF-RHF iter   5: -1908.87567367106931   -8.83148e-04   2.41146e-04 DIIS
   @DF-RHF iter   6: -1908.87591486863403   -2.41198e-04   1.06790e-04 DIIS
   @DF-RHF iter   7: -1908.87598545026003   -7.05816e-05   4.04543e-05 DIIS
   @DF-RHF iter   8: -1908.87599770874112   -1.22585e-05   1.62692e-05 DIIS
   @DF-RHF iter   9: -1908.87599959184377   -1.88310e-06   6.47838e-06 DIIS
   @DF-RHF iter  10: -1908.87599984495387   -2.53110e-07   2.22253e-06 DIIS
   @DF-RHF iter  11: -1908.87599987176304   -2.68092e-08   8.35068e-07 DIIS
   @DF-RHF iter  12: -1908.87599987463773   -2.87469e-09   3.32420e-07 DIIS
   @DF-RHF iter  13: -1908.87599987504382   -4.06089e-10   1.38783e-07 DIIS
   @DF-RHF iter  14: -1908.87599987512681   -8.29914e-11   5.30869e-08 DIIS
   @DF-RHF iter  15: -1908.87599987514022   -1.34150e-11   1.83162e-08 DIIS
   @DF-RHF iter  16: -1908.87599987514295   -2.72848e-12   6.90383e-09 DIIS

  ==> Post-Iterations <==

    Orbital Energies [Eh]
    ---------------------

    Doubly Occupied:                                                      

       1A   -104.848971     2A   -104.844713     3A   -104.844442  
       4A    -20.634939     5A    -20.618722     6A    -20.575842  
       7A    -11.402421     8A    -11.336498     9A    -11.334199  
      10A    -11.331647    11A    -11.327617    12A    -11.320827  
      13A    -11.281882    14A    -11.273448    15A    -10.582005  
      16A    -10.577938    17A    -10.577714    18A     -8.051451  
      19A     -8.048006    20A     -8.047946    21A     -8.047386  
      22A     -8.047162    23A     -8.043849    24A     -8.043844  
      25A     -8.043622    26A     -8.043601    27A     -1.499496  
      28A     -1.446711    29A     -1.390148    30A     -1.242520  
      31A     -1.185709    32A     -1.152246    33A     -1.113054  
      34A     -1.054192    35A     -1.020299    36A     -0.980251  
      37A     -0.881488    38A     -0.864015    39A     -0.822755  
      40A     -0.748230    41A     -0.739965    42A     -0.722663  
      43A     -0.701472    44A     -0.686355    45A     -0.674834  
      46A     -0.648811    47A     -0.635288    48A     -0.614012  
      49A     -0.607596    50A     -0.591942    51A     -0.573689  
      52A     -0.566377    53A     -0.548566    54A     -0.528806  
      55A     -0.512938    56A     -0.499288    57A     -0.498582  
      58A     -0.483924    59A     -0.473483    60A     -0.459147  
      61A     -0.457760    62A     -0.449626    63A     -0.364554  
      64A     -0.344891  

    Virtual:                                                              

      65A      0.098592    66A      0.105855    67A      0.149125  
      68A      0.160469    69A      0.205177    70A      0.215302  
      71A      0.236583    72A      0.271230    73A      0.275671  
      74A      0.289130    75A      0.304318    76A      0.321818  
      77A      0.343586    78A      0.367511    79A      0.397375  
      80A      0.425112    81A      0.435191    82A      0.447805  
      83A      0.475458    84A      0.494418    85A      0.508588  
      86A      0.529117    87A      0.539797    88A      0.571456  
      89A      0.584702    90A      0.600390    91A      0.605239  
      92A      0.618502    93A      0.628242    94A      0.635938  
      95A      0.655075    96A      0.665081    97A      0.676845  
      98A      0.685914    99A      0.710395   100A      0.719891  
     101A      0.739302   102A      0.752904   103A      0.766162  
     104A      0.795089   105A      0.808459   106A      0.812556  
     107A      0.822265   108A      0.844237   109A      0.851610  
     110A      0.881674   111A      0.890101   112A      0.913097  
     113A      0.925165   114A      0.938294   115A      0.960970  
     116A      0.970228   117A      0.998051   118A      1.007825  
     119A      1.033723   120A      1.043896   121A      1.048804  
     122A      1.067710   123A      1.080234   124A      1.097284  
     125A      1.115643   126A      1.120405   127A      1.125583  
     128A      1.131196   129A      1.133477   130A      1.136473  
     131A      1.143620   132A      1.146900   133A      1.159453  
     134A      1.190555   135A      1.195411   136A      1.210622  
     137A      1.214780   138A      1.225878   139A      1.255096  
     140A      1.263125   141A      1.280419   142A      1.300310  
     143A      1.316766   144A      1.320924   145A      1.330049  
     146A      1.336121   147A      1.375747   148A      1.416246  
     149A      1.421049   150A      1.430647   151A      1.455076  
     152A      1.470756   153A      1.476501   154A      1.551473  
     155A      1.580177   156A      1.596731   157A      1.630106  
     158A      1.635009   159A      1.662698   160A      1.678368  
     161A      1.689946   162A      1.700174   163A      1.753359  
     164A      1.784495   165A      1.796820   166A      1.824200  
     167A      1.833963   168A      1.859923   169A      1.916606  
     170A      1.966537   171A      1.980540   172A      2.022226  
     173A      2.038076   174A      2.074132   175A      2.084423  
     176A      2.104952   177A      2.132841   178A      2.136061  
     179A      2.189961   180A      2.221085   181A      2.225511  
     182A      2.244159   183A      2.265413   184A      2.314800  
     185A      2.321741   186A      2.340943   187A      2.385831  
     188A      2.413106   189A      2.421300   190A      2.442093  
     191A      2.454994   192A      2.505688   193A      2.518887  
     194A      2.580474   195A      2.588441   196A      2.594185  
     197A      2.634210   198A      2.668752   199A      2.768860  
     200A      2.834042   201A      2.854882   202A      2.874476  
     203A      2.897268   204A      2.973600   205A      3.001469  
     206A      3.036365   207A      3.072267   208A      3.081043  
     209A      3.096843   210A      3.115437   211A      3.186513  
     212A      3.219057   213A      3.229167   214A      3.345976  
     215A      3.399071   216A      3.462916   217A      3.487293  
     218A      3.711991   219A      4.277452   220A      4.417384  
     221A      4.437344   222A      4.486647   223A      4.512741  
     224A      4.602239   225A      4.638160   226A      4.665613  
     227A      4.726829   228A      4.749031   229A      4.798751  
     230A      4.872619   231A      4.920491   232A      5.149560  

    Final Occupation by Irrep:
              A 
    DOCC [    64 ]

  Energy converged.

  @DF-RHF Final Energy: -1908.87599987514295

   => Energetics <=

    Nuclear Repulsion Energy =           1185.5384194096479860
    One-Electron Energy =               -4988.9960967006600185
    Two-Electron Energy =                1894.5816774158693079
    Total Energy =                      -1908.8759998751429521



Properties will be evaluated at   0.000000,   0.000000,   0.000000 [a0]

Properties computed using the SCF density matrix

  Nuclear Dipole Moment: [e a0]
     X:     6.6517      Y:    10.2115      Z:     5.9049

  Electronic Dipole Moment: [e a0]
     X:    -5.9905      Y:    -9.5481      Z:    -5.6332

  Dipole Moment: [e a0]
     X:     0.6611      Y:     0.6635      Z:     0.2717     Total:     0.9753

  Dipole Moment: [D]
     X:     1.6804      Y:     1.6864      Z:     0.6906     Total:     2.4788


*** tstop() called on wr60 at Thu Sep 27 12:50:07 2018
Module time:
	user time   =      93.19 seconds =       1.55 minutes
	system time =       3.15 seconds =       0.05 minutes
	total time  =          7 seconds =       0.12 minutes
Total time:
	user time   =     539.96 seconds =       9.00 minutes
	system time =      14.22 seconds =       0.24 minutes
	total time  =         40 seconds =       0.67 minutes

*** tstart() called on wr60
*** at Thu Sep 27 12:50:07 2018


         ------------------------------------------------------------
                                   SCF GRAD                          
                          Rob Parrish, Justin Turney,                
                       Andy Simmonett, and Alex Sokolov              
         ------------------------------------------------------------

  ==> Geometry <==

    Molecular point group: c1
    Full point group: C1

    Geometry (in Angstrom), charge = 0, multiplicity = 1:

       Center              X                  Y                   Z               Mass       
    ------------   -----------------  -----------------  -----------------  -----------------
         C            1.224680092236    -0.552653056076    -0.721603333350    12.000000000000
         O            1.274794720421     1.743963110779    -0.060951311986    15.994914619560
         C            0.584645603205     0.597722450936    -0.277646889479    12.000000000000
         C           -0.787279493671     0.582529623407    -0.114528967978    12.000000000000
         H           -1.283215782802     1.471190487608     0.221813275461     1.007825032070
         O            0.263934318204     2.175355184668     2.910204202921    15.994914619560
         C           -1.521498551898    -0.559353524937    -0.383332659249    12.000000000000
         C           -0.875432379168    -1.705820741303    -0.819881769112    12.000000000000
         C            0.498668968649    -1.694729568220    -0.987944100709    12.000000000000
         H            0.998628158488    -2.578150640438    -1.332052604853     1.007825032070
         C            1.910531389184     1.902862747612     1.191412648318    12.000000000000
         H            2.818054905355     2.457391081588     1.013176671214     1.007825032070
         H            2.135608695434     0.949259471158     1.644161985357     1.007825032070
         C            0.988137859081     2.676412665501     2.115146195827    12.000000000000
         O            1.056710958629     3.983305200351     1.911327879156    15.994914619560
         H            0.432406459493     4.415868930673     2.486845588992     1.007825032070
         CL          -1.734496361848    -3.167294145433    -1.172686884318    34.968852682000
         CL           2.942797623917    -0.562658090162    -0.961025721479    34.968852682000
         CL          -3.236525789544    -0.506204592130    -0.160616231424    34.968852682000

  Nuclear repulsion = 1185.538419409647986

  ==> Basis Set <==

  Basis Set: 6-31G(D)
    Blend: 6-31G(D)
    Number of shells: 100
    Number of basis function: 232
    Number of Cartesian functions: 232
    Spherical Harmonics?: false
    Max angular momentum: 2

  ==> DFJKGrad: Density-Fitted SCF Gradients <==

    Gradient:                    1
    J tasked:                  Yes
    K tasked:                  Yes
    wK tasked:                  No
    OpenMP threads:             16
    Integrals threads:          16
    Memory (MB):             78678
[...]
     12   H               -0.20  0.38  0.32   -0.03  0.03  0.04   -0.01  0.00  0.07   
     13   H                0.47 -0.03  0.24    0.02 -0.04 -0.09   -0.06 -0.03 -0.17   
     14   C                0.00 -0.00 -0.03    0.01 -0.01  0.00    0.02 -0.03  0.00   
     15   O                0.00  0.03 -0.00   -0.00  0.01 -0.00    0.00  0.03 -0.01   
     16   H               -0.03 -0.14  0.09   -0.01 -0.01  0.01   -0.02 -0.02  0.01   
     17   CL               0.00  0.01  0.00   -0.00 -0.00 -0.00    0.01  0.02  0.01   
     18   CL              -0.00  0.00  0.00   -0.00  0.00  0.00   -0.05  0.00  0.01   
     19   CL              -0.02  0.00  0.00   -0.00  0.00  0.00   -0.01  0.00  0.00   

  Vibration                       40                  41                  42          
  Freq [cm^-1]                1260.8909           1337.6093           1378.1975       
  Irrep                           A                   A                   A           
  Reduced mass [u]              2.2345              2.0592              1.4212        
  Force const [mDyne/A]         2.0931              2.1707              1.5905        
  Turning point v=0 [a0]        0.2067              0.2091              0.2479        
  RMS dev v=0 [a0 u^1/2]        0.2185              0.2121              0.2090        
  Char temp [K]               1814.1386           1924.5190           1982.9164       
  ----------------------------------------------------------------------------------
      1   C               -0.02 -0.06 -0.02    0.07  0.04 -0.00   -0.04  0.02  0.01   
      2   O               -0.02 -0.02 -0.02   -0.01  0.00 -0.03    0.03  0.03  0.02   
      3   C               -0.05  0.07  0.03    0.05  0.08  0.03   -0.08 -0.03 -0.00   
      4   C                0.05 -0.06 -0.03   -0.00  0.02  0.00   -0.01  0.00  0.00   
      5   H               -0.57 -0.41 -0.07   -0.10 -0.03  0.01    0.62  0.34  0.04   
      6   O                0.00  0.00 -0.00    0.05  0.03 -0.05    0.02  0.02 -0.02   
      7   C                0.18 -0.04 -0.03   -0.06  0.01  0.01    0.02 -0.07 -0.03   
      8   C                0.06  0.21  0.06   -0.05 -0.04 -0.01    0.10 -0.00 -0.01   
      9   C               -0.01  0.03  0.01    0.02 -0.05 -0.02   -0.04  0.04  0.02   
     10   H               -0.56 -0.26 -0.01   -0.05 -0.10 -0.02   -0.52 -0.21 -0.00   
     11   C                0.01 -0.01  0.02   -0.01 -0.09  0.04   -0.01 -0.01 -0.02   
     12   H               -0.01 -0.03 -0.10   -0.14 -0.07 -0.54   -0.01  0.06  0.16   
     13   H                0.02  0.01  0.06    0.25  0.04  0.21    0.04 -0.06 -0.15   
     14   C               -0.01  0.02  0.00   -0.04  0.12  0.01   -0.00  0.01  0.00   
     15   O               -0.00 -0.02  0.00   -0.05 -0.13  0.06   -0.02 -0.03  0.03   
     16   H                0.01  0.03 -0.01    0.20  0.60 -0.25    0.08  0.28 -0.11   
     17   CL              -0.01 -0.02 -0.01    0.00  0.01  0.00   -0.00 -0.00 -0.00   
     18   CL               0.00  0.00 -0.00   -0.01 -0.00  0.00    0.01 -0.00 -0.00   
     19   CL              -0.02  0.00  0.00    0.01 -0.00 -0.00   -0.00  0.00  0.00   

  Vibration                       43                  44                  45          
  Freq [cm^-1]                1384.6578           1433.2554           1493.2982       
  Irrep                           A                   A                   A           
  Reduced mass [u]              1.5670              1.8667              2.0666        
  Force const [mDyne/A]         1.7701              2.2593              2.7152        
  Turning point v=0 [a0]        0.2356              0.2121              0.1975        
  RMS dev v=0 [a0 u^1/2]        0.2085              0.2049              0.2008        
  Char temp [K]               1992.2113           2062.1322           2148.5203       
  ----------------------------------------------------------------------------------
      1   C               -0.06 -0.09 -0.02    0.07  0.10  0.02    0.05  0.07  0.02   
      2   O                0.02  0.03  0.04   -0.06 -0.11 -0.02    0.02  0.05  0.00   
      3   C               -0.00 -0.10 -0.04   -0.01  0.10  0.02   -0.12 -0.04  0.00   
      4   C               -0.02 -0.01  0.00    0.05 -0.01 -0.01    0.01 -0.07 -0.02   
      5   H               -0.25 -0.13 -0.03   -0.08 -0.08 -0.02    0.10 -0.04 -0.03   
      6   O                0.03  0.03 -0.04    0.02  0.02 -0.02   -0.01  0.02  0.00   
      7   C                0.04  0.03  0.00   -0.02  0.03  0.01    0.08  0.08  0.01   
      8   C                0.01  0.04  0.01   -0.09 -0.03  0.00   -0.09  0.00  0.01   
      9   C               -0.02  0.06  0.02    0.05 -0.07 -0.03    0.02 -0.05 -0.02   
     10   H                0.46  0.33  0.05   -0.17 -0.21 -0.05    0.05 -0.05 -0.02   
     11   C               -0.01 -0.01 -0.03    0.03  0.05  0.02    0.00 -0.03 -0.07   
     12   H               -0.00  0.12  0.37    0.08  0.17  0.63   -0.06  0.15  0.17   
     13   H                0.05 -0.13 -0.32   -0.12 -0.23 -0.53   -0.10  0.31  0.74   
     14   C                0.00  0.01  0.00    0.01 -0.03  0.00    0.07 -0.15 -0.02   
     15   O               -0.04 -0.05  0.04   -0.02  0.00  0.02   -0.03  0.04  0.02   
     16   H                0.14  0.48 -0.18    0.06  0.21 -0.07    0.09  0.39 -0.13   
     17   CL              -0.00 -0.00 -0.00    0.01  0.01  0.00    0.00  0.00 -0.00   
     18   CL               0.01  0.00 -0.00   -0.01 -0.00  0.00   -0.00 -0.00 -0.00   
     19   CL              -0.00  0.00  0.00    0.00 -0.00 -0.00   -0.01 -0.00 -0.00   

  Vibration                       46                  47                  48          
  Freq [cm^-1]                1507.8939           1577.1696           1638.9205       
  Irrep                           A                   A                   A           
  Reduced mass [u]              3.6555              1.9668              1.3719        
  Force const [mDyne/A]         4.8971              2.8825              2.1711        
  Turning point v=0 [a0]        0.1478              0.1970              0.2314        
  RMS dev v=0 [a0 u^1/2]        0.1998              0.1954              0.1917        
  Char temp [K]               2169.5203           2269.1924           2358.0382       
  ----------------------------------------------------------------------------------
      1   C               -0.09 -0.09 -0.02   -0.02  0.01  0.01   -0.05  0.02  0.01   
      2   O               -0.08 -0.06 -0.04   -0.03  0.00  0.00    0.00  0.02 -0.00   
      3   C                0.23  0.09  0.00    0.01 -0.00 -0.00   -0.01 -0.06 -0.02   
      4   C                0.01  0.15  0.04    0.02  0.02  0.00    0.06  0.03  0.00   
      5   H               -0.31  0.00  0.05   -0.09 -0.03 -0.01   -0.21 -0.11 -0.01   
      6   O               -0.01  0.03 -0.00   -0.01 -0.03  0.00    0.00  0.00 -0.00   
      7   C               -0.17 -0.14 -0.02   -0.02 -0.01  0.00   -0.04  0.03  0.01   
      8   C                0.15 -0.01 -0.02    0.00 -0.01 -0.00   -0.01 -0.05 -0.02   
      9   C               -0.03  0.07  0.03    0.01  0.00 -0.00    0.06  0.04  0.00   
     10   H               -0.18  0.01  0.02   -0.07 -0.04 -0.00   -0.22 -0.12 -0.01   
     11   C                0.02 -0.00 -0.03    0.04 -0.10 -0.14   -0.08  0.04 -0.00   
     12   H               -0.07  0.21  0.24   -0.01  0.29  0.69    0.32 -0.54  0.18   
     13   H               -0.23  0.19  0.50    0.12  0.18  0.44    0.62  0.19  0.00   
     14   C                0.08 -0.19 -0.02   -0.03  0.20  0.05    0.00 -0.03 -0.01   
     15   O               -0.03  0.06  0.02    0.02 -0.06 -0.02   -0.00  0.01  0.00   
     16   H                0.09  0.41 -0.13   -0.07 -0.30  0.08    0.01  0.04 -0.01   
     17   CL              -0.01  0.00  0.00    0.00  0.00  0.00    0.00  0.00  0.00   
     18   CL               0.00  0.00  0.00    0.00 -0.00 -0.00    0.00 -0.00 -0.00   
     19   CL               0.01  0.00 -0.00    0.00 -0.00 -0.00    0.00 -0.00 -0.00   

  Vibration                       49                  50                  51          
  Freq [cm^-1]                1656.6830           1743.3642           1791.5042       
  Irrep                           A                   A                   A           
  Reduced mass [u]              2.0313             10.1141              6.5295        
  Force const [mDyne/A]         3.2848             18.1115             12.3472        
  Turning point v=0 [a0]        0.1891              0.0826              0.1015        
  RMS dev v=0 [a0 u^1/2]        0.1906              0.1858              0.1833        
  Char temp [K]               2383.5944           2508.3091           2577.5718       
  ----------------------------------------------------------------------------------
      1   C                0.09 -0.01 -0.02   -0.15  0.36  0.14    0.15  0.20  0.05   
      2   O               -0.03 -0.04 -0.02    0.01  0.04  0.01    0.02  0.03  0.01   
      3   C                0.05  0.12  0.03    0.30 -0.35 -0.14   -0.24 -0.14 -0.02   
      4   C               -0.10 -0.03  0.00   -0.13  0.15  0.06    0.34  0.19  0.02   
      5   H                0.32  0.20  0.03   -0.09  0.20  0.07   -0.47 -0.24 -0.03   
      6   O                0.00  0.00 -0.00    0.00 -0.00  0.00   -0.00 -0.00  0.00   
      7   C                0.06 -0.08 -0.03    0.13 -0.35 -0.12   -0.15 -0.17 -0.03   
      8   C                0.01  0.11  0.03   -0.31  0.27  0.12    0.18  0.07 -0.00   
      9   C               -0.12 -0.08 -0.01    0.16 -0.12 -0.06   -0.30 -0.19 -0.02   
     10   H                0.39  0.20  0.01   -0.03 -0.26 -0.08    0.41  0.20  0.01   
     11   C               -0.05  0.02 -0.02    0.00 -0.00  0.02    0.01  0.01  0.02   
     12   H                0.26 -0.38  0.29   -0.06  0.05 -0.15   -0.02  0.03 -0.08   
     13   H                0.49  0.19  0.08   -0.09 -0.06 -0.06   -0.05 -0.05 -0.06   
     14   C                0.00 -0.02  0.00   -0.00  0.00 -0.00   -0.00  0.01 -0.01   
     15   O               -0.00  0.01  0.00    0.00 -0.00  0.00    0.00 -0.00  0.00   
     16   H                0.00  0.01 -0.00    0.00  0.00 -0.00    0.01  0.01 -0.00   
     17   CL              -0.00 -0.00 -0.00    0.00 -0.00 -0.00   -0.00 -0.00 -0.00   
     18   CL              -0.01  0.00  0.00    0.00 -0.00 -0.00   -0.00 -0.00 -0.00   
     19   CL              -0.00  0.00  0.00   -0.00  0.00  0.00    0.00  0.00  0.00   

  Vibration                       52                  53                  54          
  Freq [cm^-1]                2046.1637           3289.2250           3356.7826       
  Irrep                           A                   A                   A           
  Reduced mass [u]             10.0032              1.0586              1.1129        
  Force const [mDyne/A]        24.6757              6.7479              7.3887        
  Turning point v=0 [a0]        0.0767              0.1860              0.1795        
  RMS dev v=0 [a0 u^1/2]        0.1715              0.1353              0.1339        
  Char temp [K]               2943.9695           4732.4552           4829.6555       
  ----------------------------------------------------------------------------------
      1   C               -0.00  0.01  0.00    0.00  0.00  0.00    0.00  0.00  0.00   
      2   O                0.00  0.01  0.00    0.00  0.00  0.00    0.00  0.00 -0.00   
      3   C               -0.01 -0.01 -0.00   -0.00 -0.00 -0.00    0.00  0.00  0.00   
      4   C                0.00  0.00 -0.00    0.00  0.00  0.00    0.00 -0.00 -0.00   
      5   H               -0.00 -0.01  0.02    0.00 -0.00 -0.00   -0.00  0.00  0.00   
      6   O                0.28  0.18 -0.31    0.00  0.00 -0.00    0.00  0.00 -0.00   
      7   C               -0.00  0.00  0.00   -0.00 -0.00 -0.00    0.00  0.00 -0.00   
      8   C                0.00 -0.00 -0.00   -0.00  0.00  0.00   -0.00  0.00  0.00   
      9   C               -0.00 -0.00 -0.00   -0.00  0.00  0.00    0.00 -0.00 -0.00   
     10   H                0.00 -0.00  0.00    0.00  0.00 -0.00   -0.00  0.00  0.00   
     11   C                0.05 -0.01 -0.06    0.06 -0.03  0.01   -0.04 -0.08  0.03   
     12   H                0.08 -0.07 -0.09   -0.53 -0.33  0.11    0.65  0.40 -0.14   
     13   H               -0.09  0.05  0.22   -0.15  0.69 -0.31   -0.13  0.56 -0.25   
     14   C               -0.46 -0.26  0.50   -0.00  0.00  0.00   -0.00 -0.00  0.00   
     15   O                0.04  0.04 -0.04    0.00 -0.00 -0.00   -0.00  0.00  0.00   
     16   H               -0.10 -0.38  0.15   -0.00 -0.00  0.00    0.00  0.00 -0.00   
     17   CL               0.00  0.00 -0.00    0.00  0.00 -0.00   -0.00 -0.00 -0.00   
     18   CL               0.00 -0.00  0.00   -0.00 -0.00 -0.00    0.00 -0.00 -0.00   
     19   CL               0.00 -0.00 -0.00   -0.00  0.00  0.00   -0.00  0.00  0.00   

  Vibration                       55                  56                  57          
  Freq [cm^-1]                3421.3125           3423.0688           4047.1237       
  Irrep                           A                   A                   A           
  Reduced mass [u]              1.0938              1.0942              1.0651        
  Force const [mDyne/A]         7.5435              7.5539             10.2790        
  Turning point v=0 [a0]        0.1794              0.1793              0.1671        
  RMS dev v=0 [a0 u^1/2]        0.1326              0.1326              0.1220        
  Char temp [K]               4922.4994           4925.0263           5822.9010       
  ----------------------------------------------------------------------------------
      1   C                0.00  0.00  0.00   -0.00 -0.00 -0.00   -0.00 -0.00 -0.00   
      2   O                0.00  0.00  0.00    0.00  0.00  0.00   -0.00 -0.00 -0.00   
      3   C               -0.00  0.00  0.00   -0.00 -0.00  0.00    0.00  0.00  0.00   
      4   C                0.01 -0.02 -0.01    0.04 -0.07 -0.03   -0.00  0.00  0.00   
      5   H               -0.14  0.26  0.10   -0.44  0.78  0.30    0.00 -0.00 -0.00   
      6   O               -0.00 -0.00  0.00   -0.00 -0.00  0.00   -0.00 -0.00  0.00   
      7   C                0.00  0.00  0.00    0.00  0.00  0.00    0.00  0.00 -0.00   
      8   C               -0.00 -0.00  0.00    0.00  0.00  0.00    0.00  0.00  0.00   
      9   C                0.04 -0.07 -0.03   -0.01  0.02  0.01    0.00 -0.00 -0.00   
     10   H               -0.44  0.78  0.30    0.14 -0.25 -0.10   -0.00  0.00  0.00   
     11   C                0.00  0.00 -0.00    0.00  0.00 -0.00    0.00 -0.00 -0.00   
     12   H               -0.00 -0.00  0.00   -0.00 -0.00  0.00   -0.00 -0.00  0.00   
     13   H                0.00 -0.00  0.00    0.00 -0.00 -0.00    0.00 -0.00  0.00   
     14   C                0.00  0.00 -0.00    0.00  0.00 -0.00   -0.00  0.00  0.00   
     15   O                0.00 -0.00 -0.00   -0.00 -0.00  0.00   -0.04  0.03  0.04   
     16   H                0.00  0.00 -0.00    0.00 -0.00 -0.00    0.65 -0.47 -0.60   
     17   CL               0.00  0.00  0.00   -0.00 -0.00  0.00   -0.00 -0.00 -0.00   
     18   CL              -0.00 -0.00  0.00    0.00 -0.00 -0.00    0.00 -0.00 -0.00   
     19   CL              -0.00  0.00  0.00   -0.00  0.00  0.00   -0.00  0.00  0.00   

  ==> Thermochemistry Components <==

  Entropy, S
    Electronic S            0.000 [cal/(mol K)]        0.000 [J/(mol K)]       0.00000000 [mEh/K] (multiplicity = 1)
    Translational S        42.496 [cal/(mol K)]      177.803 [J/(mol K)]       0.06772143 [mEh/K] (mol. weight = 253.9304 [u], P = 101325.00 [Pa])
    Rotational S           33.251 [cal/(mol K)]      139.122 [J/(mol K)]       0.05298860 [mEh/K] (symmetry no. = 1)
    Vibrational S          37.525 [cal/(mol K)]      157.004 [J/(mol K)]       0.05979951 [mEh/K]
  Total S                 113.271 [cal/(mol K)]      473.928 [J/(mol K)]       0.18050954 [mEh/K]
  Correction S              0.000 [cal/(mol K)]        0.000 [J/(mol K)]       0.00000000 [mEh/K]

  Constant volume heat capacity, Cv
    Electronic Cv           0.000 [cal/(mol K)]        0.000 [J/(mol K)]       0.00000000 [mEh/K]
    Translational Cv        2.981 [cal/(mol K)]       12.472 [J/(mol K)]       0.00475022 [mEh/K]
    Rotational Cv           2.981 [cal/(mol K)]       12.472 [J/(mol K)]       0.00475022 [mEh/K]
    Vibrational Cv         36.118 [cal/(mol K)]      151.116 [J/(mol K)]       0.05755692 [mEh/K]
  Total Cv                 42.079 [cal/(mol K)]      176.059 [J/(mol K)]       0.06705737 [mEh/K]
  Correction Cv             0.000 [cal/(mol K)]        0.000 [J/(mol K)]       0.00000000 [mEh/K]

  Constant pressure heat capacity, Cp
    Electronic Cp           0.000 [cal/(mol K)]        0.000 [J/(mol K)]       0.00000000 [mEh/K]
    Translational Cp        4.968 [cal/(mol K)]       20.786 [J/(mol K)]       0.00791704 [mEh/K]
    Rotational Cp           2.981 [cal/(mol K)]       12.472 [J/(mol K)]       0.00475022 [mEh/K]
    Vibrational Cp         36.118 [cal/(mol K)]      151.116 [J/(mol K)]       0.05755692 [mEh/K]
  Total Cp                 44.066 [cal/(mol K)]      184.374 [J/(mol K)]       0.07022418 [mEh/K]
  Correction Cp             0.000 [cal/(mol K)]        0.000 [J/(mol K)]       0.00000000 [mEh/K]

  ==> Thermochemistry Energy Analysis <==

  Raw electronic energy, E0
  Total E0, Electronic energy at well bottom at 0 [K]                -1908.87600062 [Eh]

  Zero-point energy, ZPE_vib = Sum_i nu_i / 2
    Electronic ZPE          0.000 [kcal/mol]        0.000 [kJ/mol]       0.00000000 [Eh]
    Translational ZPE       0.000 [kcal/mol]        0.000 [kJ/mol]       0.00000000 [Eh]
    Rotational ZPE          0.000 [kcal/mol]        0.000 [kJ/mol]       0.00000000 [Eh]
    Vibrational ZPE        81.193 [kcal/mol]      339.712 [kJ/mol]       0.12938953 [Eh]       28397.716 [cm^-1]
  Correction ZPE           81.193 [kcal/mol]      339.712 [kJ/mol]       0.12938953 [Eh]       28397.716 [cm^-1]
  Total ZPE, Electronic energy at 0 [K]                              -1908.74661109 [Eh]

  Thermal Energy, E (includes ZPE)
    Electronic E            0.000 [kcal/mol]        0.000 [kJ/mol]       0.00000000 [Eh]
    Translational E         0.889 [kcal/mol]        3.718 [kJ/mol]       0.00141628 [Eh]
    Rotational E            0.889 [kcal/mol]        3.718 [kJ/mol]       0.00141628 [Eh]
    Vibrational E          86.793 [kcal/mol]      363.140 [kJ/mol]       0.13831275 [Eh]
  Correction E             88.570 [kcal/mol]      370.577 [kJ/mol]       0.14114531 [Eh]
  Total E, Electronic energy at  298.15 [K]                          -1908.73485531 [Eh]

  Enthalpy, H_trans = E_trans + k_B * T
    Electronic H            0.000 [kcal/mol]        0.000 [kJ/mol]       0.00000000 [Eh]
    Translational H         1.481 [kcal/mol]        6.197 [kJ/mol]       0.00236046 [Eh]
    Rotational H            0.889 [kcal/mol]        3.718 [kJ/mol]       0.00141628 [Eh]
    Vibrational H          86.793 [kcal/mol]      363.140 [kJ/mol]       0.13831275 [Eh]
  Correction H             89.163 [kcal/mol]      373.056 [kJ/mol]       0.14208950 [Eh]
  Total H, Enthalpy at  298.15 [K]                                   -1908.73391113 [Eh]

  Gibbs free energy, G = H - T * S
    Electronic G            0.000 [kcal/mol]        0.000 [kJ/mol]       0.00000000 [Eh]
    Translational G       -11.189 [kcal/mol]      -46.814 [kJ/mol]      -0.01783068 [Eh]
    Rotational G           -9.025 [kcal/mol]      -37.761 [kJ/mol]      -0.01438227 [Eh]
    Vibrational G          75.605 [kcal/mol]      316.330 [kJ/mol]       0.12048353 [Eh]
  Correction G             55.391 [kcal/mol]      231.754 [kJ/mol]       0.08827058 [Eh]
  Total G, Free enthalpy at  298.15 [K]                              -1908.78773005 [Eh]

    Psi4 stopped on: Thursday, 27 September 2018 01:08PM
    Psi4 wall time for execution: 0:19:13.41

*** Psi4 exiting successfully. Buy a developer a beer!
