
    -----------------------------------------------------------------------
          Psi4: An Open-Source Ab Initio Electronic Structure Package
                               Psi4 1.2.1 release

                         Git: Rev {HEAD} 406f4de 


    R. M. Parrish, L. A. Burns, D. G. A. Smith, A. C. Simmonett,
    A. E. DePrince III, E. G. Hohenstein, U. Bozkaya, A. Yu. Sokolov,
    R. Di Remigio, R. M. Richard, J. F. Gonthier, A. M. James,
    H. R. McAlexander, A. Kumar, M. Saitow, X. Wang, B. P. Pritchard,
    P. Verma, H. F. Schaefer III, K. Patkowski, R. A. King, E. F. Valeev,
    F. A. Evangelista, J. M. Turney, T. D. Crawford, and C. D. Sherrill,
    J. Chem. Theory Comput. 13(7) pp 3185--3197 (2017).
    (doi: 10.1021/acs.jctc.7b00174)


                         Additional Contributions by
    P. Kraus, H. Kruse, M. H. Lechner, M. C. Schieber, and R. A. Shaw

    -----------------------------------------------------------------------


    Psi4 started on: Thursday, 27 September 2018 12:49PM

    Process ID: 7230
    Host:       wr59
    PSIDATADIR: /usr/local/hpc1/software_molmod/psi4/psi4conda/share/psi4
    Memory:     500.0 MiB
    Threads:    16
    
  ==> Input File <==

--------------------------------------------------------------------------
memory 110 Gb

molecule conf6 {
C    -0.275801439181    -1.218187444686     0.225218180745
O    -1.091253612687     0.726958033621     1.354639595894
C    -0.226829935345     0.143603623541     0.490634278571
C     0.754220083251     0.912438554219    -0.106647296036
H     0.799733037470     1.960895083855     0.115799701218
O    -3.599045281549     1.230609404928     2.795017824142
C     1.678580564739     0.344130966820    -0.965274746697
C     1.622603159449    -1.015772901875    -1.230589616585
C     0.645089309323    -1.790499234232    -0.629637388530
H     0.605942949360    -2.842928337832    -0.829086114090
C    -2.287901850412     1.219603171765     0.794572034357
H    -2.878259645135     0.413304865566     0.380991373793
H    -2.075017365582     1.954498952338     0.030283618770
C    -3.061762231350     1.846046253567     1.939762326970
O    -3.071233113258     3.170895731567     1.871037541582
H    -3.559655117550     3.508770047282     2.616421002930
CL     2.747696447464    -1.790880657248    -2.294326315746
CL    -1.477783404150    -2.216747065697     0.972435635967
CL     2.880338662671     1.366439855086    -1.676476924682
}
set globals {
  reference rhf
  g_convergence gau_tight
  basis 6-31G(d)
}
frequency('hf', dertype=1)
--------------------------------------------------------------------------

  Memory set to 102.445 GiB by Python driver.
gradient() will perform analytic gradient computation.

*** tstart() called on wr59
*** at Thu Sep 27 12:49:21 2018

   => Loading Basis Set <=

    Name: 6-31G(D)
    Role: ORBITAL
    Keyword: BASIS
    atoms 1, 3-4, 7-9, 11, 14 entry C          line   111 file /usr/local/hpc1/software_molmod/psi4/psi4conda/share/psi4/basis/6-31g_d_.gbs 
    atoms 2, 6, 15            entry O          line   145 file /usr/local/hpc1/software_molmod/psi4/psi4conda/share/psi4/basis/6-31g_d_.gbs 
    atoms 5, 10, 12-13, 16    entry H          line    44 file /usr/local/hpc1/software_molmod/psi4/psi4conda/share/psi4/basis/6-31g_d_.gbs 
    atoms 17-19               entry CL         line   340 file /usr/local/hpc1/software_molmod/psi4/psi4conda/share/psi4/basis/6-31g_d_.gbs 

    There are an even number of electrons - assuming singlet.
    Specify the multiplicity in the molecule input block.


         ---------------------------------------------------------
                                   SCF
            by Justin Turney, Rob Parrish, Andy Simmonett
                             and Daniel Smith
                              RHF Reference
                       16 Threads, 104904 MiB Core
         ---------------------------------------------------------

  ==> Geometry <==

    Molecular point group: c1
    Full point group: C1

    Geometry (in Angstrom), charge = 0, multiplicity = 1:

       Center              X                  Y                   Z               Mass       
    ------------   -----------------  -----------------  -----------------  -----------------
         C           -0.275801439181    -1.218187444686     0.225218180745    12.000000000000
         O           -1.091253612687     0.726958033621     1.354639595894    15.994914619560
         C           -0.226829935345     0.143603623541     0.490634278571    12.000000000000
         C            0.754220083251     0.912438554219    -0.106647296036    12.000000000000
         H            0.799733037470     1.960895083855     0.115799701218     1.007825032070
         O           -3.599045281549     1.230609404928     2.795017824142    15.994914619560
         C            1.678580564739     0.344130966820    -0.965274746697    12.000000000000
         C            1.622603159449    -1.015772901875    -1.230589616585    12.000000000000
         C            0.645089309323    -1.790499234232    -0.629637388530    12.000000000000
         H            0.605942949360    -2.842928337832    -0.829086114090     1.007825032070
         C           -2.287901850412     1.219603171765     0.794572034357    12.000000000000
         H           -2.878259645135     0.413304865566     0.380991373793     1.007825032070
         H           -2.075017365582     1.954498952338     0.030283618770     1.007825032070
         C           -3.061762231350     1.846046253567     1.939762326970    12.000000000000
         O           -3.071233113258     3.170895731567     1.871037541582    15.994914619560
         H           -3.559655117550     3.508770047282     2.616421002930     1.007825032070
         CL           2.747696447464    -1.790880657248    -2.294326315746    34.968852682000
         CL          -1.477783404150    -2.216747065697     0.972435635967    34.968852682000
         CL           2.880338662671     1.366439855086    -1.676476924682    34.968852682000

  Running in c1 symmetry.

  Rotational constants: A =      0.02707  B =      0.00834  C =      0.00648 [cm^-1]
  Rotational constants: A =    811.68746  B =    249.99689  C =    194.33363 [MHz]
  Nuclear repulsion = 1167.163908199589514

  Charge       = 0
  Multiplicity = 1
  Electrons    = 128
  Nalpha       = 64
  Nbeta        = 64

  ==> Algorithm <==

  SCF Algorithm Type is DF.
  DIIS enabled.
  MOM disabled.
  Fractional occupation disabled.
  Guess Type is SAD.
  Energy threshold   = 1.00e-08
  Density threshold  = 1.00e-08
  Integral threshold = 0.00e+00

  ==> Primary Basis <==

  Basis Set: 6-31G(D)
    Blend: 6-31G(D)
    Number of shells: 100
    Number of basis function: 232
    Number of Cartesian functions: 232
    Spherical Harmonics?: false
    Max angular momentum: 2

   => Loading Basis Set <=

    Name: (6-31G(D) AUX)
    Role: JKFIT
    Keyword: DF_BASIS_SCF
    atoms 1, 3-4, 7-9, 11, 14 entry C          line   121 file /usr/local/hpc1/software_molmod/psi4/psi4conda/share/psi4/basis/cc-pvdz-jkfit.gbs 
    atoms 2, 6, 15            entry O          line   221 file /usr/local/hpc1/software_molmod/psi4/psi4conda/share/psi4/basis/cc-pvdz-jkfit.gbs 
    atoms 5, 10, 12-13, 16    entry H          line    51 file /usr/local/hpc1/software_molmod/psi4/psi4conda/share/psi4/basis/cc-pvdz-jkfit.gbs 
    atoms 17-19               entry CL         line   667 file /usr/local/hpc1/software_molmod/psi4/psi4conda/share/psi4/basis/cc-pvdz-jkfit.gbs 

  ==> Pre-Iterations <==

   -------------------------------------------------------
    Irrep   Nso     Nmo     Nalpha   Nbeta   Ndocc  Nsocc
   -------------------------------------------------------
     A        232     232       0       0       0       0
   -------------------------------------------------------
    Total     232     232      64      64      64       0
   -------------------------------------------------------

  ==> Integral Setup <==

  ==> DiskDFJK: Density-Fitted J/K Matrices <==

    J tasked:                  Yes
    K tasked:                  Yes
    wK tasked:                  No
    OpenMP threads:             16
    Integrals threads:          16
    Memory (MB):             78678
    Algorithm:                Core
    Integral Cache:           NONE
    Schwarz Cutoff:          1E-12
    Fitting Condition:       1E-12

   => Auxiliary Basis Set <=

  Basis Set: (6-31G(D) AUX)
    Blend: CC-PVDZ-JKFIT
    Number of shells: 417
    Number of basis function: 1406
    Number of Cartesian functions: 1406
    Spherical Harmonics?: false
    Max angular momentum: 3

  Minimum eigenvalue in the overlap matrix is 3.6942373439E-04.
  Using Symmetric Orthogonalization.

  SCF Guess: Superposition of Atomic Densities via on-the-fly atomic UHF.

  ==> Iterations <==

                           Total Energy        Delta E     RMS |[F,P]|

   @DF-RHF iter   0: -1916.48272187969496   -1.91648e+03   8.58613e-02 
   @DF-RHF iter   1: -1908.39283517233298    8.08989e+00   1.03309e-02 
   @DF-RHF iter   2: -1908.72225385788965   -3.29419e-01   6.86931e-03 DIIS
   @DF-RHF iter   3: -1908.85892621776657   -1.36672e-01   1.35566e-03 DIIS
   @DF-RHF iter   4: -1908.87241630980816   -1.34901e-02   5.79318e-04 DIIS
   @DF-RHF iter   5: -1908.87446840565372   -2.05210e-03   1.74519e-04 DIIS
   @DF-RHF iter   6: -1908.87484028153085   -3.71876e-04   8.03673e-05 DIIS
   @DF-RHF iter   7: -1908.87489646427321   -5.61827e-05   2.62691e-05 DIIS
   @DF-RHF iter   8: -1908.87490370523483   -7.24096e-06   1.30136e-05 DIIS
   @DF-RHF iter   9: -1908.87490558492914   -1.87969e-06   5.54541e-06 DIIS
   @DF-RHF iter  10: -1908.87490600489309   -4.19964e-07   2.12543e-06 DIIS
   @DF-RHF iter  11: -1908.87490605800804   -5.31149e-08   7.62012e-07 DIIS
   @DF-RHF iter  12: -1908.87490606450478   -6.49675e-09   3.53453e-07 DIIS
   @DF-RHF iter  13: -1908.87490606553592   -1.03114e-09   1.74080e-07 DIIS
   @DF-RHF iter  14: -1908.87490606575784   -2.21917e-10   6.48380e-08 DIIS
   @DF-RHF iter  15: -1908.87490606577808   -2.02363e-11   2.45573e-08 DIIS
   @DF-RHF iter  16: -1908.87490606577899   -9.09495e-13   8.56316e-09 DIIS

  ==> Post-Iterations <==

    Orbital Energies [Eh]
    ---------------------

    Doubly Occupied:                                                      

       1A   -104.848298     2A   -104.847092     3A   -104.846391  
       4A    -20.634190     5A    -20.617639     6A    -20.570692  
       7A    -11.401535     8A    -11.337807     9A    -11.337392  
      10A    -11.334277    11A    -11.328654    12A    -11.320920  
      13A    -11.283790    14A    -11.276748    15A    -10.581562  
      16A    -10.580316    17A    -10.579425    18A     -8.051006  
      19A     -8.049762    20A     -8.048877    21A     -8.047474  
      22A     -8.047453    23A     -8.046223    24A     -8.046219  
      25A     -8.045387    26A     -8.045316    27A     -1.497121  
      28A     -1.448290    29A     -1.387451    30A     -1.244845  
      31A     -1.186485    32A     -1.155069    33A     -1.114086  
      34A     -1.055394    35A     -1.021822    36A     -0.981207  
      37A     -0.884002    38A     -0.857559    39A     -0.825187  
      40A     -0.746877    41A     -0.741140    42A     -0.719322  
      43A     -0.717920    44A     -0.679395    45A     -0.655807  
      46A     -0.651968    47A     -0.633930    48A     -0.630793  
      49A     -0.609125    50A     -0.593781    51A     -0.576843  
      52A     -0.568326    53A     -0.555935    54A     -0.528327  
      55A     -0.501531    56A     -0.498730    57A     -0.487599  
      58A     -0.481006    59A     -0.470417    60A     -0.463852  
      61A     -0.459435    62A     -0.457206    63A     -0.367518  
      64A     -0.346960  

    Virtual:                                                              

      65A      0.095875    66A      0.103660    67A      0.147142  
      68A      0.163542    69A      0.205720    70A      0.218875  
      71A      0.234958    72A      0.256425    73A      0.283918  
      74A      0.292712    75A      0.307673    76A      0.318239  
      77A      0.336618    78A      0.385219    79A      0.401940  
      80A      0.419863    81A      0.434004    82A      0.461914  
      83A      0.470371    84A      0.480152    85A      0.518575  
      86A      0.521272    87A      0.541237    88A      0.559020  
      89A      0.585756    90A      0.597215    91A      0.601828  
      92A      0.619849    93A      0.624015    94A      0.637506  
      95A      0.652081    96A      0.660194    97A      0.673916  
      98A      0.684274    99A      0.705525   100A      0.720055  
     101A      0.746784   102A      0.750243   103A      0.769371  
     104A      0.788054   105A      0.793707   106A      0.808346  
     107A      0.813223   108A      0.843673   109A      0.857256  
     110A      0.873606   111A      0.890083   112A      0.923786  
     113A      0.932081   114A      0.947213   115A      0.962687  
     116A      0.978749   117A      0.986024   118A      1.010966  
     119A      1.013933   120A      1.046289   121A      1.052209  
     122A      1.065256   123A      1.072934   124A      1.096917  
     125A      1.113757   126A      1.118281   127A      1.119946  
     128A      1.126417   129A      1.128786   130A      1.137911  
     131A      1.149397   132A      1.157839   133A      1.168975  
     134A      1.186144   135A      1.198597   136A      1.202112  
     137A      1.215983   138A      1.230631   139A      1.245658  
     140A      1.256043   141A      1.275825   142A      1.290962  
     143A      1.302631   144A      1.325293   145A      1.336320  
     146A      1.357479   147A      1.361547   148A      1.397795  
     149A      1.416554   150A      1.431332   151A      1.445032  
     152A      1.462747   153A      1.490965   154A      1.515181  
     155A      1.565589   156A      1.586708   157A      1.614117  
     158A      1.640265   159A      1.670508   160A      1.682388  
     161A      1.687331   162A      1.712536   163A      1.748185  
     164A      1.782655   165A      1.795160   166A      1.801582  
     167A      1.818786   168A      1.835009   169A      1.914453  
     170A      1.919077   171A      2.013951   172A      2.031110  
     173A      2.041187   174A      2.063444   175A      2.086905  
     176A      2.101511   177A      2.152113   178A      2.168701  
     179A      2.182175   180A      2.203899   181A      2.221965  
     182A      2.230191   183A      2.261805   184A      2.327443  
     185A      2.336750   186A      2.371689   187A      2.385907  
     188A      2.393513   189A      2.415615   190A      2.423126  
     191A      2.459040   192A      2.467157   193A      2.535911  
     194A      2.550654   195A      2.582949   196A      2.599581  
     197A      2.639560   198A      2.701799   199A      2.730114  
     200A      2.804127   201A      2.838531   202A      2.881526  
     203A      2.888090   204A      2.969997   205A      3.003842  
     206A      3.025059   207A      3.065972   208A      3.072797  
     209A      3.098927   210A      3.107259   211A      3.189543  
     212A      3.215239   213A      3.228027   214A      3.362434  
     215A      3.425687   216A      3.481765   217A      3.486011  
     218A      3.709306   219A      4.247943   220A      4.422746  
     221A      4.445125   222A      4.480476   223A      4.536833  
     224A      4.590116   225A      4.623411   226A      4.654836  
     227A      4.721173   228A      4.744065   229A      4.797992  
     230A      4.869767   231A      4.927345   232A      5.148758  

    Final Occupation by Irrep:
              A 
    DOCC [    64 ]

  Energy converged.

  @DF-RHF Final Energy: -1908.87490606577899

   => Energetics <=

    Nuclear Repulsion Energy =           1167.1639081995895140
    One-Electron Energy =               -4952.1642244419208509
    Two-Electron Energy =                1876.1254101765523501
    Total Energy =                      -1908.8749060657789869



Properties will be evaluated at   0.000000,   0.000000,   0.000000 [a0]

Properties computed using the SCF density matrix

  Nuclear Dipole Moment: [e a0]
     X:   -10.4994      Y:     7.1247      Z:     4.9434

  Electronic Dipole Moment: [e a0]
     X:    10.0365      Y:    -6.3754      Z:    -5.4133

  Dipole Moment: [e a0]
     X:    -0.4629      Y:     0.7493      Z:    -0.4699     Total:     0.9983

  Dipole Moment: [D]
     X:    -1.1766      Y:     1.9046      Z:    -1.1944     Total:     2.5374


*** tstop() called on wr59 at Thu Sep 27 12:49:30 2018
Module time:
	user time   =     108.01 seconds =       1.80 minutes
	system time =       7.69 seconds =       0.13 minutes
	total time  =          9 seconds =       0.15 minutes
Total time:
	user time   =     108.01 seconds =       1.80 minutes
	system time =       7.69 seconds =       0.13 minutes
	total time  =          9 seconds =       0.15 minutes

*** tstart() called on wr59
*** at Thu Sep 27 12:49:30 2018


         ------------------------------------------------------------
                                   SCF GRAD                          
                          Rob Parrish, Justin Turney,                
                       Andy Simmonett, and Alex Sokolov              
         ------------------------------------------------------------

  ==> Geometry <==

    Molecular point group: c1
    Full point group: C1

    Geometry (in Angstrom), charge = 0, multiplicity = 1:

       Center              X                  Y                   Z               Mass       
    ------------   -----------------  -----------------  -----------------  -----------------
         C           -0.275801439181    -1.218187444686     0.225218180745    12.000000000000
         O           -1.091253612687     0.726958033621     1.354639595894    15.994914619560
         C           -0.226829935345     0.143603623541     0.490634278571    12.000000000000
         C            0.754220083251     0.912438554219    -0.106647296036    12.000000000000
         H            0.799733037470     1.960895083855     0.115799701218     1.007825032070
         O           -3.599045281549     1.230609404928     2.795017824142    15.994914619560
         C            1.678580564739     0.344130966820    -0.965274746697    12.000000000000
         C            1.622603159449    -1.015772901875    -1.230589616585    12.000000000000
         C            0.645089309323    -1.790499234232    -0.629637388530    12.000000000000
         H            0.605942949360    -2.842928337832    -0.829086114090     1.007825032070
         C           -2.287901850412     1.219603171765     0.794572034357    12.000000000000
         H           -2.878259645135     0.413304865566     0.380991373793     1.007825032070
         H           -2.075017365582     1.954498952338     0.030283618770     1.007825032070
         C           -3.061762231350     1.846046253567     1.939762326970    12.000000000000
         O           -3.071233113258     3.170895731567     1.871037541582    15.994914619560
         H           -3.559655117550     3.508770047282     2.616421002930     1.007825032070
         CL           2.747696447464    -1.790880657248    -2.294326315746    34.968852682000
         CL          -1.477783404150    -2.216747065697     0.972435635967    34.968852682000
         CL           2.880338662671     1.366439855086    -1.676476924682    34.968852682000

  Nuclear repulsion = 1167.163908199589514

  ==> Basis Set <==

  Basis Set: 6-31G(D)
    Blend: 6-31G(D)
    Number of shells: 100
    Number of basis function: 232
    Number of Cartesian functions: 232
    Spherical Harmonics?: false
    Max angular momentum: 2

  ==> DFJKGrad: Density-Fitted SCF Gradients <==

    Gradient:                    1
    J tasked:                  Yes
    K tasked:                  Yes
    wK tasked:                  No
    OpenMP threads:             16
    Integrals threads:          16
    Memory (MB):             78678
    Schwarz Cutoff:          0E+00
    Fitting Condition:       1E-12

   => Auxiliary Basis Set <=

  Basis Set: (6-31G(D) AUX)
    Blend: CC-PVDZ-JKFIT
    Number of shells: 417
    Number of basis function: 1406
    Number of Cartesian functions: 1406
    Spherical Harmonics?: false
    Max angular momentum: 3


  -Total Gradient:
     Atom            X                  Y                   Z
    ------   -----------------  -----------------  -----------------
       1        0.000000060737    -0.000000359665     0.000000990051
       2       -0.000000128345    -0.000000120696    -0.000000035895
       3        0.000000149000     0.000000113676     0.000000628810
       4        0.000000005213     0.000000150135    -0.000000078689
       5        0.000000007705     0.000000536602     0.000000001922
       6       -0.000000897343    -0.000000445290     0.000000256392
       7        0.000000771268    -0.000000099012     0.000000394311
       8       -0.000000283112     0.000000072919    -0.000000913803
       9       -0.000000160094    -0.000000002395    -0.000000092107
      10        0.000000015251    -0.000000687858    -0.000000181192
      11       -0.000000177202     0.000000228636     0.000000002626
      12       -0.000000248838    -0.000000099990    -0.000000019514
      13       -0.000000172551     0.000000278515    -0.000000389726
      14        0.000001337780     0.000001342057     0.000000235738
      15       -0.000000440794    -0.000000980560    -0.000000694779
      16        0.000000170474    -0.000000151326     0.000000337615
      17        0.000000183949     0.000000064916     0.000000066141
      18       -0.000000140077     0.000000107892    -0.000000282939
      19       -0.000000053005     0.000000051468    -0.000000224958


*** tstop() called on wr59 at Thu Sep 27 12:49:34 2018
Module time:
	user time   =      65.14 seconds =       1.09 minutes
	system time =       1.36 seconds =       0.02 minutes
	total time  =          4 seconds =       0.07 minutes
Total time:
	user time   =     173.21 seconds =       2.89 minutes
	system time =       9.05 seconds =       0.15 minutes
	total time  =         13 seconds =       0.22 minutes

  Based on options and gradient (rms=6.46E-07), recommend projecting translations and projecting rotations.
hessian() will perform frequency computation by finite difference of analytic gradients.

-------------------------------------------------------------

  Using finite-differences of gradients to determine vibrational frequencies and 
  normal modes.  Resulting frequencies are only valid at stationary points.
	Generating geometries for use with 3-point formula.
	Displacement size will be 5.00e-03.
	Number of atoms is 19.
	Number of irreps is 1.
	Number of SALCS is 51.
	Translations projected? 1. Rotations projected? 1.
	Index of salcs per irrep:
	 1 :  0  1  2  3  4  5  6  7  8  9  10  11  12  13  14  15  16  17  18  19  20  21  22  23  24  25  26  27  28  29  30  31  32  33  34  35  36  37  38  39  40  41  42  43  44  45  46  47  48  49  50 
	Number of SALC's per irrep:
		 Irrep 1: 51
	Number of geometries (including reference) is 103.
	Number of displacements per irrep:
	  Irrep 1: 102

  //>>>>>>>>>>>>>>>>>>>>>>>>>>>>>>>>>>>//
  //   Loading displacement 1 of 103   //
  //<<<<<<<<<<<<<<<<<<<<<<<<<<<<<<<<<<<//
gradient() will perform analytic gradient computation.

*** tstart() called on wr59
*** at Thu Sep 27 12:49:34 2018

   => Loading Basis Set <=

    Name: 6-31G(D)
    Role: ORBITAL
    Keyword: BASIS
    atoms 1, 3-4, 7-9, 11, 14 entry C          line   111 file /usr/local/hpc1/software_molmod/psi4/psi4conda/share/psi4/basis/6-31g_d_.gbs 
    atoms 2, 6, 15            entry O          line   145 file /usr/local/hpc1/software_molmod/psi4/psi4conda/share/psi4/basis/6-31g_d_.gbs 
    atoms 5, 10, 12-13, 16    entry H          line    44 file /usr/local/hpc1/software_molmod/psi4/psi4conda/share/psi4/basis/6-31g_d_.gbs 
    atoms 17-19               entry CL         line   340 file /usr/local/hpc1/software_molmod/psi4/psi4conda/share/psi4/basis/6-31g_d_.gbs 


         ---------------------------------------------------------
                                   SCF
            by Justin Turney, Rob Parrish, Andy Simmonett
                             and Daniel Smith
                              RHF Reference
                       16 Threads, 104904 MiB Core
         ---------------------------------------------------------

  ==> Geometry <==

    Molecular point group: c1
    Full point group: C1

    Geometry (in Angstrom), charge = 0, multiplicity = 1:

       Center              X                  Y                   Z               Mass       
    ------------   -----------------  -----------------  -----------------  -----------------
         C           -0.276541110971    -1.218188448477     0.225227169852    12.000000000000
         O           -1.091218486761     0.726957138453     1.354638347073    15.994914619560
         C           -0.226792355974     0.143604825008     0.490634068789    12.000000000000
         C            0.754248740106     0.912444679171    -0.106655823650    12.000000000000
         H            0.799752924905     1.960903097541     0.115784065695     1.007825032070
         O           -3.599009998196     1.230595350660     2.795021450702    15.994914619560
         C            1.678611556347     0.344139767092    -0.965282531557    12.000000000000
         C            1.622645601525    -1.015766369659    -1.230588192123    12.000000000000
         C            0.645140739317    -1.790497569102    -0.629627618722    12.000000000000
         H            0.606003260130    -2.842928351115    -0.829069230870     1.007825032070
         C           -2.287873022934     1.219587718425     0.794571437268    12.000000000000
         H           -2.878224868403     0.413281318940     0.380998062864     1.007825032070
         H           -2.074997700444     1.954480354911     0.030277446435     1.007825032070
         C           -3.061735326215     1.846031390308     1.939760108075    12.000000000000
         O           -3.071218435687     3.170880326371     1.871026560504    15.994914619560
         H           -3.559641058251     3.508755164492     2.616409379920     1.007825032070
         CL           2.747742425624    -1.790870992532    -2.294323433780    34.968852682000
         CL          -1.477722862511    -2.216753999338     0.972455191630    34.968852682000
         CL           2.880358062115     1.366454822219    -1.676495432992    34.968852682000

  Running in c1 symmetry.

  Rotational constants: A =      0.02707  B =      0.00834  C =      0.00648 [cm^-1]
  Rotational constants: A =    811.68059  B =    249.99702  C =    194.33317 [MHz]
  Nuclear repulsion = 1167.163672124119557

  Charge       = 0
  Multiplicity = 1
  Electrons    = 128
  Nalpha       = 64
  Nbeta        = 64

  ==> Algorithm <==

  SCF Algorithm Type is DF.
  DIIS enabled.
  MOM disabled.
  Fractional occupation disabled.
  Guess Type is SAD.
  Energy threshold   = 1.00e-08
  Density threshold  = 1.00e-08
  Integral threshold = 0.00e+00

  ==> Primary Basis <==

  Basis Set: 6-31G(D)
    Blend: 6-31G(D)
    Number of shells: 100
    Number of basis function: 232
    Number of Cartesian functions: 232
    Spherical Harmonics?: false
    Max angular momentum: 2

   => Loading Basis Set <=

    Name: (6-31G(D) AUX)
    Role: JKFIT
    Keyword: DF_BASIS_SCF
    atoms 1, 3-4, 7-9, 11, 14 entry C          line   121 file /usr/local/hpc1/software_molmod/psi4/psi4conda/share/psi4/basis/cc-pvdz-jkfit.gbs 
    atoms 2, 6, 15            entry O          line   221 file /usr/local/hpc1/software_molmod/psi4/psi4conda/share/psi4/basis/cc-pvdz-jkfit.gbs 
    atoms 5, 10, 12-13, 16    entry H          line    51 file /usr/local/hpc1/software_molmod/psi4/psi4conda/share/psi4/basis/cc-pvdz-jkfit.gbs 
    atoms 17-19               entry CL         line   667 file /usr/local/hpc1/software_molmod/psi4/psi4conda/share/psi4/basis/cc-pvdz-jkfit.gbs 

  ==> Pre-Iterations <==

   -------------------------------------------------------
    Irrep   Nso     Nmo     Nalpha   Nbeta   Ndocc  Nsocc
   -------------------------------------------------------
     A        232     232       0       0       0       0
   -------------------------------------------------------
    Total     232     232      64      64      64       0
   -------------------------------------------------------

  ==> Integral Setup <==

  ==> DiskDFJK: Density-Fitted J/K Matrices <==

    J tasked:                  Yes
    K tasked:                  Yes
    wK tasked:                  No
    OpenMP threads:             16
    Integrals threads:          16
    Memory (MB):             78678
    Algorithm:                Core
    Integral Cache:           NONE
    Schwarz Cutoff:          1E-12
    Fitting Condition:       1E-12

   => Auxiliary Basis Set <=

  Basis Set: (6-31G(D) AUX)
    Blend: CC-PVDZ-JKFIT
    Number of shells: 417
    Number of basis function: 1406
    Number of Cartesian functions: 1406
    Spherical Harmonics?: false
    Max angular momentum: 3

  Minimum eigenvalue in the overlap matrix is 3.6975917492E-04.
  Using Symmetric Orthogonalization.

  SCF Guess: Superposition of Atomic Densities via on-the-fly atomic UHF.

  ==> Iterations <==

                           Total Energy        Delta E     RMS |[F,P]|

   @DF-RHF iter   0: -1915.69329105740326   -1.91569e+03   1.14405e-01 
   @DF-RHF iter   1: -1908.39093423045847    7.30236e+00   1.39473e-02 
   @DF-RHF iter   2: -1908.73101072252143   -3.40076e-01   8.89223e-03 DIIS
   @DF-RHF iter   3: -1908.85525302026235   -1.24242e-01   2.06058e-03 DIIS
   @DF-RHF iter   4: -1908.87258362984608   -1.73306e-02   7.52643e-04 DIIS
   @DF-RHF iter   5: -1908.87452392143769   -1.94029e-03   2.98053e-04 DIIS
   @DF-RHF iter   6: -1908.87486338200711   -3.39461e-04   9.72073e-05 DIIS
   @DF-RHF iter   7: -1908.87490071334082   -3.73313e-05   3.14360e-05 DIIS
   @DF-RHF iter   8: -1908.87490442839885   -3.71506e-06   1.40960e-05 DIIS
   @DF-RHF iter   9: -1908.87490531315279   -8.84754e-07   5.54861e-06 DIIS
   @DF-RHF iter  10: -1908.87490550613757   -1.92985e-07   2.17554e-06 DIIS
   @DF-RHF iter  11: -1908.87490553495445   -2.88169e-08   1.02503e-06 DIIS
   @DF-RHF iter  12: -1908.87490554107785   -6.12340e-09   3.80812e-07 DIIS
   @DF-RHF iter  13: -1908.87490554211422   -1.03637e-09   1.51788e-07 DIIS
   @DF-RHF iter  14: -1908.87490554229817   -1.83945e-10   5.86313e-08 DIIS
   @DF-RHF iter  15: -1908.87490554231817   -2.00089e-11   2.48048e-08 DIIS
   @DF-RHF iter  16: -1908.87490554232227   -4.09273e-12   9.96213e-09 DIIS

  ==> Post-Iterations <==

    Orbital Energies [Eh]
    ---------------------

    Doubly Occupied:                                                      

       1A   -104.848289     2A   -104.847080     3A   -104.846450  
       4A    -20.634186     5A    -20.617609     6A    -20.570688  
       7A    -11.401530     8A    -11.337787     9A    -11.337383  
      10A    -11.334260    11A    -11.328659    12A    -11.320912  
      13A    -11.283819    14A    -11.276736    15A    -10.581554  
      16A    -10.580304    17A    -10.579491    18A     -8.050998  
      19A     -8.049751    20A     -8.048944    21A     -8.047466  
      22A     -8.047444    23A     -8.046211    24A     -8.046208  
      25A     -8.045453    26A     -8.045382    27A     -1.497117  
      28A     -1.448275    29A     -1.387447    30A     -1.244806  
      31A     -1.186557    32A     -1.155056    33A     -1.114116  
      34A     -1.055346    35A     -1.021785    36A     -0.981188  
      37A     -0.883980    38A     -0.857551    39A     -0.825154  
      40A     -0.746847    41A     -0.741113    42A     -0.719309  
      43A     -0.717911    44A     -0.679404    45A     -0.655768  
      46A     -0.651957    47A     -0.633893    48A     -0.630785  
      49A     -0.609182    50A     -0.593759    51A     -0.576833  
      52A     -0.568323    53A     -0.555991    54A     -0.528377  
      55A     -0.501524    56A     -0.498726    57A     -0.487594  
      58A     -0.481016    59A     -0.470422    60A     -0.463848  
      61A     -0.459427    62A     -0.457197    63A     -0.367462  
      64A     -0.346931  

    Virtual:                                                              

      65A      0.095822    66A      0.103700    67A      0.147196  
      68A      0.163549    69A      0.205820    70A      0.218878  
      71A      0.234966    72A      0.256428    73A      0.283922  
      74A      0.292717    75A      0.307664    76A      0.318202  
      77A      0.336628    78A      0.385208    79A      0.401940  
      80A      0.419880    81A      0.433866    82A      0.461917  
      83A      0.470350    84A      0.480154    85A      0.518567  
      86A      0.521279    87A      0.541213    88A      0.558975  
      89A      0.585736    90A      0.597223    91A      0.601827  
      92A      0.619823    93A      0.624054    94A      0.637467  
      95A      0.652083    96A      0.660199    97A      0.673888  
      98A      0.684267    99A      0.705601   100A      0.720082  
     101A      0.746786   102A      0.750243   103A      0.769389  
     104A      0.788044   105A      0.793710   106A      0.808329  
     107A      0.813225   108A      0.843661   109A      0.857261  
     110A      0.873635   111A      0.890082   112A      0.923774  
     113A      0.932088   114A      0.947218   115A      0.962674  
     116A      0.978744   117A      0.986065   118A      1.010945  
     119A      1.013882   120A      1.046326   121A      1.052208  
     122A      1.065242   123A      1.072947   124A      1.096930  
     125A      1.113726   126A      1.118283   127A      1.119909  
     128A      1.126440   129A      1.128788   130A      1.137911  
     131A      1.149356   132A      1.157782   133A      1.168937  
     134A      1.186153   135A      1.198599   136A      1.202091  
     137A      1.216008   138A      1.230628   139A      1.245596  
     140A      1.256055   141A      1.275881   142A      1.291006  
     143A      1.302638   144A      1.325340   145A      1.336321  
     146A      1.357473   147A      1.361610   148A      1.397741  
     149A      1.416564   150A      1.431427   151A      1.445083  
     152A      1.462684   153A      1.490905   154A      1.515193  
     155A      1.565610   156A      1.586686   157A      1.614148  
     158A      1.640222   159A      1.670469   160A      1.682338  
     161A      1.687391   162A      1.712545   163A      1.748191  
     164A      1.782693   165A      1.795210   166A      1.801593  
     167A      1.818843   168A      1.834884   169A      1.914407  
     170A      1.919087   171A      2.013968   172A      2.031115  
     173A      2.041030   174A      2.063424   175A      2.086844  
     176A      2.101470   177A      2.152138   178A      2.168732  
     179A      2.182213   180A      2.204083   181A      2.221981  
     182A      2.230192   183A      2.261727   184A      2.327447  
     185A      2.336784   186A      2.371619   187A      2.385830  
     188A      2.393496   189A      2.415521   190A      2.423111  
     191A      2.458898   192A      2.467145   193A      2.535865  
     194A      2.550639   195A      2.582664   196A      2.599633  
     197A      2.639537   198A      2.701814   199A      2.730144  
     200A      2.804125   201A      2.838586   202A      2.881502  
     203A      2.887989   204A      2.969862   205A      3.003787  
     206A      3.025085   207A      3.065738   208A      3.072549  
     209A      3.098876   210A      3.107093   211A      3.189631  
     212A      3.215222   213A      3.228038   214A      3.362432  
     215A      3.425729   216A      3.481736   217A      3.485946  
     218A      3.709104   219A      4.247922   220A      4.422751  
     221A      4.445037   222A      4.480359   223A      4.536822  
     224A      4.590055   225A      4.623399   226A      4.654810  
     227A      4.721150   228A      4.744059   229A      4.798083  
     230A      4.869742   231A      4.927337   232A      5.148608  

    Final Occupation by Irrep:
              A 
    DOCC [    64 ]

  Energy converged.

  @DF-RHF Final Energy: -1908.87490554232227

   => Energetics <=

    Nuclear Repulsion Energy =           1167.1636721241195573
    One-Electron Energy =               -4952.1640154788583459
    Two-Electron Energy =                1876.1254378124167488
    Total Energy =                      -1908.8749055423222671



Properties will be evaluated at   0.000000,   0.000000,   0.000000 [a0]

Properties computed using the SCF density matrix

  Nuclear Dipole Moment: [e a0]
     X:   -10.4994      Y:     7.1246      Z:     4.9434

  Electronic Dipole Moment: [e a0]
     X:    10.0358      Y:    -6.3760      Z:    -5.4128

  Dipole Moment: [e a0]
     X:    -0.4635      Y:     0.7487      Z:    -0.4694     Total:     0.9978

  Dipole Moment: [D]
     X:    -1.1782      Y:     1.9029      Z:    -1.1931     Total:     2.5363


*** tstop() called on wr59 at Thu Sep 27 12:49:42 2018
Module time:
	user time   =     103.05 seconds =       1.72 minutes
	system time =       2.36 seconds =       0.04 minutes
	total time  =          8 seconds =       0.13 minutes
Total time:
	user time   =     276.54 seconds =       4.61 minutes
	system time =      11.42 seconds =       0.19 minutes
	total time  =         21 seconds =       0.35 minutes

*** tstart() called on wr59
*** at Thu Sep 27 12:49:42 2018


         ------------------------------------------------------------
                                   SCF GRAD                          
                          Rob Parrish, Justin Turney,                
                       Andy Simmonett, and Alex Sokolov              
         ------------------------------------------------------------

  ==> Geometry <==

    Molecular point group: c1
    Full point group: C1

    Geometry (in Angstrom), charge = 0, multiplicity = 1:

       Center              X                  Y                   Z               Mass       
    ------------   -----------------  -----------------  -----------------  -----------------
         C           -0.276541110971    -1.218188448477     0.225227169852    12.000000000000
         O           -1.091218486761     0.726957138453     1.354638347073    15.994914619560
         C           -0.226792355974     0.143604825008     0.490634068789    12.000000000000
         C            0.754248740106     0.912444679171    -0.106655823650    12.000000000000
         H            0.799752924905     1.960903097541     0.115784065695     1.007825032070
         O           -3.599009998196     1.230595350660     2.795021450702    15.994914619560
         C            1.678611556347     0.344139767092    -0.965282531557    12.000000000000
         C            1.622645601525    -1.015766369659    -1.230588192123    12.000000000000
         C            0.645140739317    -1.790497569102    -0.629627618722    12.000000000000
         H            0.606003260130    -2.842928351115    -0.829069230870     1.007825032070
         C           -2.287873022934     1.219587718425     0.794571437268    12.000000000000
         H           -2.878224868403     0.413281318940     0.380998062864     1.007825032070
         H           -2.074997700444     1.954480354911     0.030277446435     1.007825032070
         C           -3.061735326215     1.846031390308     1.939760108075    12.000000000000
         O           -3.071218435687     3.170880326371     1.871026560504    15.994914619560
         H           -3.559641058251     3.508755164492     2.616409379920     1.007825032070
         CL           2.747742425624    -1.790870992532    -2.294323433780    34.968852682000
         CL          -1.477722862511    -2.216753999338     0.972455191630    34.968852682000
         CL           2.880358062115     1.366454822219    -1.676495432992    34.968852682000

  Nuclear repulsion = 1167.163672124119557

  ==> Basis Set <==

  Basis Set: 6-31G(D)
    Blend: 6-31G(D)
    Number of shells: 100
    Number of basis function: 232
    Number of Cartesian functions: 232
    Spherical Harmonics?: false
    Max angular momentum: 2

  ==> DFJKGrad: Density-Fitted SCF Gradients <==

    Gradient:                    1
    J tasked:                  Yes
    K tasked:                  Yes
    wK tasked:                  No
    OpenMP threads:             16
    Integrals threads:          16
    Memory (MB):             78678
    Schwarz Cutoff:          0E+00
    Fitting Condition:       1E-12

   => Auxiliary Basis Set <=

  Basis Set: (6-31G(D) AUX)
    Blend: CC-PVDZ-JKFIT
    Number of shells: 417
    Number of basis function: 1406
    Number of Cartesian functions: 1406
    Spherical Harmonics?: false
    Max angular momentum: 3


  -Total Gradient:
     Atom            X                  Y                   Z
    ------   -----------------  -----------------  -----------------
       1       -0.000704583113    -0.000036655885     0.000381921133
       2        0.000011935978    -0.000055926878    -0.000024140806
       3        0.000177353693     0.000096933222    -0.000023325909
       4       -0.000052659093     0.000030942944     0.000039974056
       5        0.000000904358     0.000004733946    -0.000007258871
       6        0.000000332888     0.000000770877    -0.000001828581
       7        0.000026142626    -0.000056995750    -0.000030985459
       8        0.000065485142     0.000061123681    -0.000046361768
       9        0.000317687349    -0.000149175965    -0.000197260809
      10       -0.000009121376     0.000003448753     0.000001690894
      11       -0.000009451845    -0.000002996968    -0.000005852437
      12        0.000000714424     0.000000361134     0.000001457506
      13        0.000000999310     0.000000327990     0.000000626985
      14        0.000000553615     0.000000483481     0.000004129833
      15        0.000000016316    -0.000000960953    -0.000001545983
      16       -0.000000074025    -0.000000188299     0.000000277289
      17       -0.000003974426     0.000002778035    -0.000002707681
      18        0.000178220583     0.000100945785    -0.000089644011
      19       -0.000000482449     0.000000050764     0.000000834736


*** tstop() called on wr59 at Thu Sep 27 12:49:47 2018
Module time:
	user time   =      63.80 seconds =       1.06 minutes
	system time =       1.32 seconds =       0.02 minutes
	total time  =          5 seconds =       0.08 minutes
Total time:
	user time   =     340.37 seconds =       5.67 minutes
	system time =      12.74 seconds =       0.21 minutes
	total time  =         26 seconds =       0.43 minutes

  //>>>>>>>>>>>>>>>>>>>>>>>>>>>>>>>>>>>//
  //   Loading displacement 2 of 103   //
  //<<<<<<<<<<<<<<<<<<<<<<<<<<<<<<<<<<<//
gradient() will perform analytic gradient computation.

*** tstart() called on wr59
*** at Thu Sep 27 12:49:47 2018

   => Loading Basis Set <=

    Name: 6-31G(D)
    Role: ORBITAL
    Keyword: BASIS
    atoms 1, 3-4, 7-9, 11, 14 entry C          line   111 file /usr/local/hpc1/software_molmod/psi4/psi4conda/share/psi4/basis/6-31g_d_.gbs 
    atoms 2, 6, 15            entry O          line   145 file /usr/local/hpc1/software_molmod/psi4/psi4conda/share/psi4/basis/6-31g_d_.gbs 
    atoms 5, 10, 12-13, 16    entry H          line    44 file /usr/local/hpc1/software_molmod/psi4/psi4conda/share/psi4/basis/6-31g_d_.gbs 
    atoms 17-19               entry CL         line   340 file /usr/local/hpc1/software_molmod/psi4/psi4conda/share/psi4/basis/6-31g_d_.gbs 


         ---------------------------------------------------------
                                   SCF
            by Justin Turney, Rob Parrish, Andy Simmonett
                             and Daniel Smith
                              RHF Reference
                       16 Threads, 104904 MiB Core
         ---------------------------------------------------------

  ==> Geometry <==

    Molecular point group: c1
    Full point group: C1

    Geometry (in Angstrom), charge = 0, multiplicity = 1:

       Center              X                  Y                   Z               Mass       
    ------------   -----------------  -----------------  -----------------  -----------------
         C           -0.275061767391    -1.218186440895     0.225209191638    12.000000000000
         O           -1.091288738613     0.726958928788     1.354640844715    15.994914619560
         C           -0.226867514716     0.143602422074     0.490634488354    12.000000000000
         C            0.754191426396     0.912432429267    -0.106638768421    12.000000000000
         H            0.799713150036     1.960887070169     0.115815336741     1.007825032070
         O           -3.599080564902     1.230623459196     2.795014197582    15.994914619560
         C            1.678549573131     0.344122166548    -0.965266961837    12.000000000000
         C            1.622560717373    -1.015779434092    -1.230591041047    12.000000000000
         C            0.645037879329    -1.790500899362    -0.629647158338    12.000000000000
         H            0.605882638590    -2.842928324549    -0.829102997309     1.007825032070
         C           -2.287930677890     1.219618625105     0.794572631446    12.000000000000
         H           -2.878294421866     0.413328412192     0.380984684722     1.007825032070
         H           -2.075037030720     1.954517549765     0.030289791105     1.007825032070
         C           -3.061789136485     1.846061116826     1.939764545865    12.000000000000
         O           -3.071247790829     3.170911136763     1.871048522660    15.994914619560
         H           -3.559669176848     3.508784930072     2.616432625940     1.007825032070
         CL           2.747650469304    -1.790890321965    -2.294329197712    34.968852682000
         CL          -1.477843945788    -2.216740132056     0.972416080304    34.968852682000
         CL           2.880319263227     1.366424887953    -1.676458416372    34.968852682000

  Running in c1 symmetry.

  Rotational constants: A =      0.02708  B =      0.00834  C =      0.00648 [cm^-1]
  Rotational constants: A =    811.69431  B =    249.99676  C =    194.33410 [MHz]
  Nuclear repulsion = 1167.164144785365124

  Charge       = 0
  Multiplicity = 1
  Electrons    = 128
  Nalpha       = 64
  Nbeta        = 64

  ==> Algorithm <==

  SCF Algorithm Type is DF.
  DIIS enabled.
  MOM disabled.
  Fractional occupation disabled.
  Guess Type is SAD.
  Energy threshold   = 1.00e-08
  Density threshold  = 1.00e-08
  Integral threshold = 0.00e+00

  ==> Primary Basis <==

  Basis Set: 6-31G(D)
    Blend: 6-31G(D)
    Number of shells: 100
    Number of basis function: 232
    Number of Cartesian functions: 232
    Spherical Harmonics?: false
    Max angular momentum: 2

   => Loading Basis Set <=

    Name: (6-31G(D) AUX)
    Role: JKFIT
    Keyword: DF_BASIS_SCF
    atoms 1, 3-4, 7-9, 11, 14 entry C          line   121 file /usr/local/hpc1/software_molmod/psi4/psi4conda/share/psi4/basis/cc-pvdz-jkfit.gbs 
    atoms 2, 6, 15            entry O          line   221 file /usr/local/hpc1/software_molmod/psi4/psi4conda/share/psi4/basis/cc-pvdz-jkfit.gbs 
    atoms 5, 10, 12-13, 16    entry H          line    51 file /usr/local/hpc1/software_molmod/psi4/psi4conda/share/psi4/basis/cc-pvdz-jkfit.gbs 
    atoms 17-19               entry CL         line   667 file /usr/local/hpc1/software_molmod/psi4/psi4conda/share/psi4/basis/cc-pvdz-jkfit.gbs 

  ==> Pre-Iterations <==

   -------------------------------------------------------
    Irrep   Nso     Nmo     Nalpha   Nbeta   Ndocc  Nsocc
   -------------------------------------------------------
     A        232     232       0       0       0       0
   -------------------------------------------------------
    Total     232     232      64      64      64       0
   -------------------------------------------------------

  ==> Integral Setup <==

  ==> DiskDFJK: Density-Fitted J/K Matrices <==

    J tasked:                  Yes
    K tasked:                  Yes
    wK tasked:                  No
    OpenMP threads:             16
    Integrals threads:          16
    Memory (MB):             78678
    Algorithm:                Core
    Integral Cache:           NONE
    Schwarz Cutoff:          1E-12
    Fitting Condition:       1E-12

   => Auxiliary Basis Set <=

  Basis Set: (6-31G(D) AUX)
    Blend: CC-PVDZ-JKFIT
    Number of shells: 417
    Number of basis function: 1406
    Number of Cartesian functions: 1406
    Spherical Harmonics?: false
    Max angular momentum: 3

  Minimum eigenvalue in the overlap matrix is 3.6909237317E-04.
  Using Symmetric Orthogonalization.

  SCF Guess: Superposition of Atomic Densities via on-the-fly atomic UHF.

  ==> Iterations <==

                           Total Energy        Delta E     RMS |[F,P]|

   @DF-RHF iter   0: -1915.56072230282939   -1.91556e+03   1.15531e-01 
   @DF-RHF iter   1: -1908.41478926326977    7.14593e+00   1.35947e-02 
   @DF-RHF iter   2: -1908.74060021616651   -3.25811e-01   8.54684e-03 DIIS
   @DF-RHF iter   3: -1908.85681760106922   -1.16217e-01   2.23531e-03 DIIS
   @DF-RHF iter   4: -1908.87265953283963   -1.58419e-02   7.53440e-04 DIIS
   @DF-RHF iter   5: -1908.87456967315779   -1.91014e-03   2.81638e-04 DIIS
   @DF-RHF iter   6: -1908.87487218827641   -3.02515e-04   8.33102e-05 DIIS
   @DF-RHF iter   7: -1908.87490318833625   -3.10001e-05   2.46828e-05 DIIS
   @DF-RHF iter   8: -1908.87490511022838   -1.92189e-06   1.05925e-05 DIIS
   @DF-RHF iter   9: -1908.87490547477682   -3.64548e-07   3.60677e-06 DIIS
   @DF-RHF iter  10: -1908.87490553062321   -5.58464e-08   1.38893e-06 DIIS
   @DF-RHF iter  11: -1908.87490553938869   -8.76548e-09   5.77539e-07 DIIS
   @DF-RHF iter  12: -1908.87490554101350   -1.62481e-09   2.15054e-07 DIIS
   @DF-RHF iter  13: -1908.87490554130522   -2.91720e-10   9.35423e-08 DIIS
   @DF-RHF iter  14: -1908.87490554137139   -6.61657e-11   4.03668e-08 DIIS
   @DF-RHF iter  15: -1908.87490554138594   -1.45519e-11   1.81420e-08 DIIS
   @DF-RHF iter  16: -1908.87490554139004   -4.09273e-12   8.04075e-09 DIIS

  ==> Post-Iterations <==

    Orbital Energies [Eh]
    ---------------------

    Doubly Occupied:                                                      

       1A   -104.848307     2A   -104.847103     3A   -104.846332  
       4A    -20.634193     5A    -20.617670     6A    -20.570695  
       7A    -11.401539     8A    -11.337827     9A    -11.337400  
      10A    -11.334293    11A    -11.328650    12A    -11.320928  
      13A    -11.283761    14A    -11.276760    15A    -10.581571  
      16A    -10.580327    17A    -10.579359    18A     -8.051015  
      19A     -8.049774    20A     -8.048810    21A     -8.047483  
      22A     -8.047461    23A     -8.046234    24A     -8.046231  
      25A     -8.045322    26A     -8.045251    27A     -1.497125  
      28A     -1.448305    29A     -1.387454    30A     -1.244884  
      31A     -1.186413    32A     -1.155082    33A     -1.114054  
      34A     -1.055441    35A     -1.021859    36A     -0.981225  
      37A     -0.884024    38A     -0.857567    39A     -0.825221  
      40A     -0.746906    41A     -0.741167    42A     -0.719335  
      43A     -0.717930    44A     -0.679387    45A     -0.655847  
      46A     -0.651980    47A     -0.633967    48A     -0.630801  
      49A     -0.609067    50A     -0.593803    51A     -0.576852  
      52A     -0.568329    53A     -0.555878    54A     -0.528276  
      55A     -0.501537    56A     -0.498734    57A     -0.487604  
      58A     -0.480997    59A     -0.470411    60A     -0.463856  
      61A     -0.459444    62A     -0.457214    63A     -0.367575  
      64A     -0.346989  

    Virtual:                                                              

      65A      0.095928    66A      0.103620    67A      0.147087  
      68A      0.163534    69A      0.205619    70A      0.218873  
      71A      0.234950    72A      0.256421    73A      0.283913  
      74A      0.292708    75A      0.307680    76A      0.318276  
      77A      0.336608    78A      0.385230    79A      0.401939  
      80A      0.419845    81A      0.434142    82A      0.461911  
      83A      0.470392    84A      0.480150    85A      0.518582  
      86A      0.521264    87A      0.541261    88A      0.559065  
      89A      0.585777    90A      0.597206    91A      0.601829  
      92A      0.619874    93A      0.623975    94A      0.637545  
      95A      0.652079    96A      0.660189    97A      0.673943  
      98A      0.684281    99A      0.705450   100A      0.720028  
     101A      0.746783   102A      0.750242   103A      0.769353  
     104A      0.788064   105A      0.793703   106A      0.808364  
     107A      0.813221   108A      0.843685   109A      0.857251  
     110A      0.873577   111A      0.890084   112A      0.923798  
     113A      0.932074   114A      0.947208   115A      0.962701  
     116A      0.978753   117A      0.985983   118A      1.010987  
     119A      1.013985   120A      1.046250   121A      1.052212  
     122A      1.065270   123A      1.072920   124A      1.096904  
     125A      1.113787   126A      1.118278   127A      1.119984  
     128A      1.126394   129A      1.128784   130A      1.137912  
     131A      1.149438   132A      1.157897   133A      1.169013  
     134A      1.186135   135A      1.198595   136A      1.202134  
     137A      1.215958   138A      1.230634   139A      1.245721  
     140A      1.256032   141A      1.275769   142A      1.290918  
     143A      1.302624   144A      1.325246   145A      1.336320  
     146A      1.357486   147A      1.361485   148A      1.397848  
     149A      1.416543   150A      1.431238   151A      1.444978  
     152A      1.462811   153A      1.491025   154A      1.515168  
     155A      1.565569   156A      1.586730   157A      1.614086  
     158A      1.640307   159A      1.670540   160A      1.682443  
     161A      1.687272   162A      1.712529   163A      1.748179  
     164A      1.782617   165A      1.795111   166A      1.801573  
     167A      1.818729   168A      1.835134   169A      1.914499  
     170A      1.919066   171A      2.013935   172A      2.031104  
     173A      2.041343   174A      2.063464   175A      2.086966  
     176A      2.101553   177A      2.152088   178A      2.168669  
     179A      2.182136   180A      2.203715   181A      2.221949  
     182A      2.230190   183A      2.261883   184A      2.327438  
     185A      2.336716   186A      2.371759   187A      2.385982  
     188A      2.393532   189A      2.415709   190A      2.423141  
     191A      2.459182   192A      2.467169   193A      2.535956  
     194A      2.550670   195A      2.583232   196A      2.599531  
     197A      2.639582   198A      2.701783   199A      2.730083  
     200A      2.804129   201A      2.838475   202A      2.881550  
     203A      2.888190   204A      2.970131   205A      3.003895  
     206A      3.025033   207A      3.066208   208A      3.073044  
     209A      3.098977   210A      3.107427   211A      3.189454  
     212A      3.215255   213A      3.228016   214A      3.362436  
     215A      3.425644   216A      3.481791   217A      3.486079  
     218A      3.709506   219A      4.247964   220A      4.422740  
     221A      4.445213   222A      4.480593   223A      4.536845  
     224A      4.590177   225A      4.623423   226A      4.654862  
     227A      4.721195   228A      4.744071   229A      4.797901  
     230A      4.869793   231A      4.927354   232A      5.148907  

    Final Occupation by Irrep:
              A 
    DOCC [    64 ]

  Energy converged.

  @DF-RHF Final Energy: -1908.87490554139004

   => Energetics <=

    Nuclear Repulsion Energy =           1167.1641447853651243
    One-Electron Energy =               -4952.1644298721666928
    Two-Electron Energy =                1876.1253795454113060
    Total Energy =                      -1908.8749055413900351



Properties will be evaluated at   0.000000,   0.000000,   0.000000 [a0]

Properties computed using the SCF density matrix

  Nuclear Dipole Moment: [e a0]
     X:   -10.4994      Y:     7.1248      Z:     4.9434

  Electronic Dipole Moment: [e a0]
     X:    10.0372      Y:    -6.3748      Z:    -5.4138

  Dipole Moment: [e a0]
     X:    -0.4623      Y:     0.7500      Z:    -0.4704     Total:     0.9987

  Dipole Moment: [D]
     X:    -1.1750      Y:     1.9062      Z:    -1.1956     Total:     2.5385


*** tstop() called on wr59 at Thu Sep 27 12:49:55 2018
Module time:
	user time   =     102.39 seconds =       1.71 minutes
	system time =       2.44 seconds =       0.04 minutes
	total time  =          8 seconds =       0.13 minutes
Total time:
	user time   =     442.94 seconds =       7.38 minutes
	system time =      15.18 seconds =       0.25 minutes
	total time  =         34 seconds =       0.57 minutes

*** tstart() called on wr59
*** at Thu Sep 27 12:49:55 2018


         ------------------------------------------------------------
                                   SCF GRAD                          
                          Rob Parrish, Justin Turney,                
                       Andy Simmonett, and Alex Sokolov              
         ------------------------------------------------------------

  ==> Geometry <==

    Molecular point group: c1
    Full point group: C1

    Geometry (in Angstrom), charge = 0, multiplicity = 1:

       Center              X                  Y                   Z               Mass       
    ------------   -----------------  -----------------  -----------------  -----------------
         C           -0.275061767391    -1.218186440895     0.225209191638    12.000000000000
         O           -1.091288738613     0.726958928788     1.354640844715    15.994914619560
         C           -0.226867514716     0.143602422074     0.490634488354    12.000000000000
         C            0.754191426396     0.912432429267    -0.106638768421    12.000000000000
         H            0.799713150036     1.960887070169     0.115815336741     1.007825032070
         O           -3.599080564902     1.230623459196     2.795014197582    15.994914619560
         C            1.678549573131     0.344122166548    -0.965266961837    12.000000000000
         C            1.622560717373    -1.015779434092    -1.230591041047    12.000000000000
         C            0.645037879329    -1.790500899362    -0.629647158338    12.000000000000
         H            0.605882638590    -2.842928324549    -0.829102997309     1.007825032070
         C           -2.287930677890     1.219618625105     0.794572631446    12.000000000000
         H           -2.878294421866     0.413328412192     0.380984684722     1.007825032070
         H           -2.075037030720     1.954517549765     0.030289791105     1.007825032070
         C           -3.061789136485     1.846061116826     1.939764545865    12.000000000000
         O           -3.071247790829     3.170911136763     1.871048522660    15.994914619560
         H           -3.559669176848     3.508784930072     2.616432625940     1.007825032070
         CL           2.747650469304    -1.790890321965    -2.294329197712    34.968852682000
         CL          -1.477843945788    -2.216740132056     0.972416080304    34.968852682000
         CL           2.880319263227     1.366424887953    -1.676458416372    34.968852682000

  Nuclear repulsion = 1167.164144785365124

  ==> Basis Set <==

  Basis Set: 6-31G(D)
    Blend: 6-31G(D)
    Number of shells: 100
    Number of basis function: 232
    Number of Cartesian functions: 232
    Spherical Harmonics?: false
    Max angular momentum: 2

  ==> DFJKGrad: Density-Fitted SCF Gradients <==

    Gradient:                    1
    J tasked:                  Yes
    K tasked:                  Yes
    wK tasked:                  No
    OpenMP threads:             16
    Integrals threads:          16
    Memory (MB):             78678
    Schwarz Cutoff:          0E+00
    Fitting Condition:       1E-12

   => Auxiliary Basis Set <=

  Basis Set: (6-31G(D) AUX)
    Blend: CC-PVDZ-JKFIT
    Number of shells: 417
    Number of basis function: 1406
    Number of Cartesian functions: 1406
    Spherical Harmonics?: false
    Max angular momentum: 3


  -Total Gradient:
     Atom            X                  Y                   Z
    ------   -----------------  -----------------  -----------------
       1        0.000705019772     0.000035588915    -0.000380490025
       2       -0.000012155635     0.000055560684     0.000024002642
       3       -0.000177012355    -0.000096814156     0.000024587546
       4        0.000052853128    -0.000030455992    -0.000040282496
       5       -0.000000883783    -0.000003826535     0.000007209499
       6       -0.000002077136    -0.000001593712     0.000002246695
       7       -0.000024742936     0.000057124197     0.000031946948
       8       -0.000066112247    -0.000060948529     0.000044691284
       9       -0.000318729731     0.000149232105     0.000197967300
      10        0.000009191991    -0.000004867042    -0.000002082957
      11        0.000009142869     0.000003563801     0.000005688916
      12       -0.000001191158    -0.000000522831    -0.000001471359
      13       -0.000001352338     0.000000160548    -0.000001334907
      14        0.000002025641     0.000002152509    -0.000003540844
      15       -0.000000934512    -0.000001038057     0.000000213020
      16        0.000000446119    -0.000000128235     0.000000356091
      17        0.000004369599    -0.000002723743     0.000002794467
      18       -0.000178169540    -0.000100392927     0.000088710056
      19        0.000000312146    -0.000000071031    -0.000001211946


*** tstop() called on wr59 at Thu Sep 27 12:49:59 2018
Module time:
	user time   =      64.94 seconds =       1.08 minutes
	system time =       1.28 seconds =       0.02 minutes
	total time  =          4 seconds =       0.07 minutes
Total time:
	user time   =     507.91 seconds =       8.47 minutes
	system time =      16.46 seconds =       0.27 minutes
	total time  =         38 seconds =       0.63 minutes

  //>>>>>>>>>>>>>>>>>>>>>>>>>>>>>>>>>>>//
  //   Loading displacement 3 of 103   //
  //<<<<<<<<<<<<<<<<<<<<<<<<<<<<<<<<<<<//
gradient() will perform analytic gradient computation.

*** tstart() called on wr59
*** at Thu Sep 27 12:49:59 2018

   => Loading Basis Set <=

    Name: 6-31G(D)
    Role: ORBITAL
    Keyword: BASIS
    atoms 1, 3-4, 7-9, 11, 14 entry C          line   111 file /usr/local/hpc1/software_molmod/psi4/psi4conda/share/psi4/basis/6-31g_d_.gbs 
    atoms 2, 6, 15            entry O          line   145 file /usr/local/hpc1/software_molmod/psi4/psi4conda/share/psi4/basis/6-31g_d_.gbs 
    atoms 5, 10, 12-13, 16    entry H          line    44 file /usr/local/hpc1/software_molmod/psi4/psi4conda/share/psi4/basis/6-31g_d_.gbs 
    atoms 17-19               entry CL         line   340 file /usr/local/hpc1/software_molmod/psi4/psi4conda/share/psi4/basis/6-31g_d_.gbs 


         ---------------------------------------------------------
                                   SCF
            by Justin Turney, Rob Parrish, Andy Simmonett
                             and Daniel Smith
                              RHF Reference
                       16 Threads, 104904 MiB Core
         ---------------------------------------------------------

  ==> Geometry <==

    Molecular point group: c1
    Full point group: C1

    Geometry (in Angstrom), charge = 0, multiplicity = 1:

       Center              X                  Y                   Z               Mass       
    ------------   -----------------  -----------------  -----------------  -----------------
         C           -0.275801439181    -1.218932746362     0.225219472335    12.000000000000
         O           -1.091252979785     0.726997361863     1.354638891885    15.994914619560
         C           -0.226829838749     0.143641319458     0.490634140099    12.000000000000
         C            0.754220794400     0.912474799359    -0.106648292563    12.000000000000
         H            0.799734641801     1.960931523909     0.115797603257     1.007825032070
         O           -3.599044148705     1.230652351114     2.795016725492    15.994914619560
         C            1.678580752517     0.344165534889    -0.965275196644    12.000000000000
         C            1.622602189957    -1.015738564859    -1.230588638076    12.000000000000
         C            0.645087720520    -1.790463445564    -0.629635545978    12.000000000000
         H            0.605940465259    -2.842892725323    -0.829083166279     1.007825032070
         C           -2.287900833150     1.219642918862     0.794570877552    12.000000000000
         H           -2.878259327650     0.413344675408     0.380991093547     1.007825032070
         H           -2.075015771174     1.954537719336     0.030281680316     1.007825032070
         C           -3.061760626614     1.846087851603     1.939760554647    12.000000000000
         O           -3.071230398475     3.170937265526     1.871034381027    15.994914619560
         H           -3.559652079123     3.508812773147     2.616417514169     1.007825032070
         CL           2.747694769857    -1.790848381044    -2.294324584555    34.968852682000
         CL          -1.477785266112    -2.216707813164     0.972438038158    34.968852682000
         CL           2.880339672023     1.366472667431    -1.676478510113    34.968852682000

  Running in c1 symmetry.

  Rotational constants: A =      0.02707  B =      0.00834  C =      0.00648 [cm^-1]
  Rotational constants: A =    811.65764  B =    249.99688  C =    194.33193 [MHz]
  Nuclear repulsion = 1167.157701020325703

  Charge       = 0
  Multiplicity = 1
  Electrons    = 128
  Nalpha       = 64
  Nbeta        = 64

  ==> Algorithm <==

  SCF Algorithm Type is DF.
  DIIS enabled.
  MOM disabled.
  Fractional occupation disabled.
  Guess Type is SAD.
  Energy threshold   = 1.00e-08
  Density threshold  = 1.00e-08
  Integral threshold = 0.00e+00

  ==> Primary Basis <==

  Basis Set: 6-31G(D)
    Blend: 6-31G(D)
    Number of shells: 100
    Number of basis function: 232
    Number of Cartesian functions: 232
    Spherical Harmonics?: false
    Max angular momentum: 2

   => Loading Basis Set <=

    Name: (6-31G(D) AUX)
    Role: JKFIT
    Keyword: DF_BASIS_SCF
    atoms 1, 3-4, 7-9, 11, 14 entry C          line   121 file /usr/local/hpc1/software_molmod/psi4/psi4conda/share/psi4/basis/cc-pvdz-jkfit.gbs 
    atoms 2, 6, 15            entry O          line   221 file /usr/local/hpc1/software_molmod/psi4/psi4conda/share/psi4/basis/cc-pvdz-jkfit.gbs 
    atoms 5, 10, 12-13, 16    entry H          line    51 file /usr/local/hpc1/software_molmod/psi4/psi4conda/share/psi4/basis/cc-pvdz-jkfit.gbs 
    atoms 17-19               entry CL         line   667 file /usr/local/hpc1/software_molmod/psi4/psi4conda/share/psi4/basis/cc-pvdz-jkfit.gbs 

  ==> Pre-Iterations <==

   -------------------------------------------------------
    Irrep   Nso     Nmo     Nalpha   Nbeta   Ndocc  Nsocc
   -------------------------------------------------------
     A        232     232       0       0       0       0
   -------------------------------------------------------
    Total     232     232      64      64      64       0
   -------------------------------------------------------

  ==> Integral Setup <==

  ==> DiskDFJK: Density-Fitted J/K Matrices <==

    J tasked:                  Yes
    K tasked:                  Yes
    wK tasked:                  No
    OpenMP threads:             16
    Integrals threads:          16
    Memory (MB):             78678
    Algorithm:                Core
    Integral Cache:           NONE
    Schwarz Cutoff:          1E-12
    Fitting Condition:       1E-12

   => Auxiliary Basis Set <=

  Basis Set: (6-31G(D) AUX)
    Blend: CC-PVDZ-JKFIT
    Number of shells: 417
    Number of basis function: 1406
    Number of Cartesian functions: 1406
    Spherical Harmonics?: false
    Max angular momentum: 3

  Minimum eigenvalue in the overlap matrix is 3.6962550903E-04.
  Using Symmetric Orthogonalization.

  SCF Guess: Superposition of Atomic Densities via on-the-fly atomic UHF.

  ==> Iterations <==

                           Total Energy        Delta E     RMS |[F,P]|

   @DF-RHF iter   0: -1913.92267624939382   -1.91392e+03   1.10166e-01 
   @DF-RHF iter   1: -1908.50410504405409    5.41857e+00   1.30157e-02 
   @DF-RHF iter   2: -1908.80004998857862   -2.95945e-01   6.46209e-03 DIIS
   @DF-RHF iter   3: -1908.86291293035765   -6.28629e-02   2.06282e-03 DIIS
   @DF-RHF iter   4: -1908.87387427147837   -1.09613e-02   5.73993e-04 DIIS
   @DF-RHF iter   5: -1908.87472958002377   -8.55309e-04   2.13035e-04 DIIS
   @DF-RHF iter   6: -1908.87487933178295   -1.49752e-04   7.76593e-05 DIIS
   @DF-RHF iter   7: -1908.87490289160246   -2.35598e-05   2.16215e-05 DIIS
   @DF-RHF iter   8: -1908.87490499068326   -2.09908e-06   8.70700e-06 DIIS
   @DF-RHF iter   9: -1908.87490526724241   -2.76559e-07   3.43707e-06 DIIS
   @DF-RHF iter  10: -1908.87490532115612   -5.39137e-08   1.14636e-06 DIIS
   @DF-RHF iter  11: -1908.87490533157097   -1.04149e-08   5.19832e-07 DIIS
   @DF-RHF iter  12: -1908.87490533345931   -1.88834e-09   2.17075e-07 DIIS
   @DF-RHF iter  13: -1908.87490533381379   -3.54476e-10   9.71811e-08 DIIS
   @DF-RHF iter  14: -1908.87490533388404   -7.02585e-11   4.20639e-08 DIIS
   @DF-RHF iter  15: -1908.87490533389541   -1.13687e-11   1.46291e-08 DIIS
   @DF-RHF iter  16: -1908.87490533389678   -1.36424e-12   6.36658e-09 DIIS

  ==> Post-Iterations <==

    Orbital Energies [Eh]
    ---------------------

    Doubly Occupied:                                                      

       1A   -104.848287     2A   -104.847082     3A   -104.846436  
       4A    -20.634191     5A    -20.617646     6A    -20.570694  
       7A    -11.401536     8A    -11.337868     9A    -11.337377  
      10A    -11.334257    11A    -11.328667    12A    -11.320921  
      13A    -11.283733    14A    -11.276723    15A    -10.581552  
      16A    -10.580305    17A    -10.579476    18A     -8.050996  
      19A     -8.049752    20A     -8.048929    21A     -8.047464  
      22A     -8.047442    23A     -8.046212    24A     -8.046209  
      25A     -8.045438    26A     -8.045367    27A     -1.497123  
      28A     -1.448281    29A     -1.387453    30A     -1.244822  
      31A     -1.186546    32A     -1.155053    33A     -1.114094  
      34A     -1.055395    35A     -1.021841    36A     -0.981122  
      37A     -0.883904    38A     -0.857554    39A     -0.825217  
      40A     -0.746864    41A     -0.741122    42A     -0.719317  
      43A     -0.717919    44A     -0.679400    45A     -0.655771  
      46A     -0.651965    47A     -0.633912    48A     -0.630783  
      49A     -0.609187    50A     -0.593774    51A     -0.576839  
      52A     -0.568300    53A     -0.555988    54A     -0.528377  
      55A     -0.501516    56A     -0.498726    57A     -0.487578  
      58A     -0.481021    59A     -0.470418    60A     -0.463847  
      61A     -0.459440    62A     -0.457192    63A     -0.367547  
      64A     -0.346864  

    Virtual:                                                              

      65A      0.095933    66A      0.103610    67A      0.147179  
      68A      0.163541    69A      0.205803    70A      0.218874  
      71A      0.234981    72A      0.256428    73A      0.283921  
      74A      0.292714    75A      0.307686    76A      0.318227  
      77A      0.336613    78A      0.385250    79A      0.401937  
      80A      0.419825    81A      0.433987    82A      0.461900  
      83A      0.470334    84A      0.480154    85A      0.518521  
      86A      0.521256    87A      0.541221    88A      0.558955  
      89A      0.585729    90A      0.597225    91A      0.601837  
      92A      0.619826    93A      0.623990    94A      0.637475  
      95A      0.652088    96A      0.660238    97A      0.673896  
      98A      0.684301    99A      0.705540   100A      0.720066  
     101A      0.746784   102A      0.750257   103A      0.769362  
     104A      0.788063   105A      0.793728   106A      0.808381  
     107A      0.813257   108A      0.843665   109A      0.857305  
     110A      0.873612   111A      0.889992   112A      0.923768  
     113A      0.932083   114A      0.947228   115A      0.962675  
     116A      0.978756   117A      0.986037   118A      1.010977  
     119A      1.013938   120A      1.046285   121A      1.052229  
     122A      1.065263   123A      1.072929   124A      1.096921  
     125A      1.113750   126A      1.118269   127A      1.119932  
     128A      1.126395   129A      1.128785   130A      1.137918  
     131A      1.149368   132A      1.157805   133A      1.168965  
     134A      1.186147   135A      1.198592   136A      1.202076  
     137A      1.216018   138A      1.230633   139A      1.245717  
     140A      1.256068   141A      1.275770   142A      1.290976  
     143A      1.302625   144A      1.325341   145A      1.336319  
     146A      1.357479   147A      1.361556   148A      1.397761  
     149A      1.416551   150A      1.431439   151A      1.445044  
     152A      1.462693   153A      1.490944   154A      1.515186  
     155A      1.565616   156A      1.586719   157A      1.614134  
     158A      1.640266   159A      1.670510   160A      1.682486  
     161A      1.687371   162A      1.712534   163A      1.748193  
     164A      1.782629   165A      1.795137   166A      1.801571  
     167A      1.818792   168A      1.835023   169A      1.914436  
     170A      1.919080   171A      2.013892   172A      2.030938  
     173A      2.041194   174A      2.063399   175A      2.086851  
     176A      2.101497   177A      2.152074   178A      2.168756  
     179A      2.182146   180A      2.204032   181A      2.221980  
     182A      2.230186   183A      2.261763   184A      2.327404  
     185A      2.336714   186A      2.371632   187A      2.385938  
     188A      2.393520   189A      2.415675   190A      2.423090  
     191A      2.458951   192A      2.467122   193A      2.535914  
     194A      2.550582   195A      2.582907   196A      2.599712  
     197A      2.639499   198A      2.701758   199A      2.730122  
     200A      2.804099   201A      2.838431   202A      2.881489  
     203A      2.888135   204A      2.969834   205A      3.003664  
     206A      3.025038   207A      3.065986   208A      3.072708  
     209A      3.098922   210A      3.107246   211A      3.189600  
     212A      3.215223   213A      3.227968   214A      3.362429  
     215A      3.425694   216A      3.481737   217A      3.485766  
     218A      3.709098   219A      4.247932   220A      4.422750  
     221A      4.445027   222A      4.480564   223A      4.536792  
     224A      4.590103   225A      4.623366   226A      4.654857  
     227A      4.721175   228A      4.744074   229A      4.797982  
     230A      4.869675   231A      4.927310   232A      5.148556  

    Final Occupation by Irrep:
              A 
    DOCC [    64 ]

  Energy converged.

  @DF-RHF Final Energy: -1908.87490533389678

   => Energetics <=

    Nuclear Repulsion Energy =           1167.1577010203257032
    One-Electron Energy =               -4952.1519421979573963
    Two-Electron Energy =                1876.1193358437351435
    Total Energy =                      -1908.8749053338967769



Properties will be evaluated at   0.000000,   0.000000,   0.000000 [a0]

Properties computed using the SCF density matrix

  Nuclear Dipole Moment: [e a0]
     X:   -10.4994      Y:     7.1248      Z:     4.9434

  Electronic Dipole Moment: [e a0]
     X:    10.0357      Y:    -6.3759      Z:    -5.4128

  Dipole Moment: [e a0]
     X:    -0.4637      Y:     0.7489      Z:    -0.4694     Total:     0.9981

  Dipole Moment: [D]
     X:    -1.1786      Y:     1.9034      Z:    -1.1931     Total:     2.5368


*** tstop() called on wr59 at Thu Sep 27 12:50:07 2018
Module time:
	user time   =     103.92 seconds =       1.73 minutes
	system time =       2.30 seconds =       0.04 minutes
	total time  =          8 seconds =       0.13 minutes
Total time:
	user time   =     612.03 seconds =      10.20 minutes
	system time =      18.76 seconds =       0.31 minutes
	total time  =         46 seconds =       0.77 minutes

*** tstart() called on wr59
*** at Thu Sep 27 12:50:07 2018


         ------------------------------------------------------------
                                   SCF GRAD                          
                          Rob Parrish, Justin Turney,                
                       Andy Simmonett, and Alex Sokolov              
         ------------------------------------------------------------

  ==> Geometry <==

    Molecular point group: c1
    Full point group: C1

    Geometry (in Angstrom), charge = 0, multiplicity = 1:

       Center              X                  Y                   Z               Mass       
    ------------   -----------------  -----------------  -----------------  -----------------
         C           -0.275801439181    -1.218932746362     0.225219472335    12.000000000000
         O           -1.091252979785     0.726997361863     1.354638891885    15.994914619560
         C           -0.226829838749     0.143641319458     0.490634140099    12.000000000000
         C            0.754220794400     0.912474799359    -0.106648292563    12.000000000000
         H            0.799734641801     1.960931523909     0.115797603257     1.007825032070
         O           -3.599044148705     1.230652351114     2.795016725492    15.994914619560
         C            1.678580752517     0.344165534889    -0.965275196644    12.000000000000
         C            1.622602189957    -1.015738564859    -1.230588638076    12.000000000000
         C            0.645087720520    -1.790463445564    -0.629635545978    12.000000000000
         H            0.605940465259    -2.842892725323    -0.829083166279     1.007825032070
         C           -2.287900833150     1.219642918862     0.794570877552    12.000000000000
         H           -2.878259327650     0.413344675408     0.380991093547     1.007825032070
         H           -2.075015771174     1.954537719336     0.030281680316     1.007825032070
         C           -3.061760626614     1.846087851603     1.939760554647    12.000000000000
         O           -3.071230398475     3.170937265526     1.871034381027    15.994914619560
         H           -3.559652079123     3.508812773147     2.616417514169     1.007825032070
         CL           2.747694769857    -1.790848381044    -2.294324584555    34.968852682000
         CL          -1.477785266112    -2.216707813164     0.972438038158    34.968852682000
         CL           2.880339672023     1.366472667431    -1.676478510113    34.968852682000

  Nuclear repulsion = 1167.157701020325703

  ==> Basis Set <==

  Basis Set: 6-31G(D)
    Blend: 6-31G(D)
    Number of shells: 100
    Number of basis function: 232
    Number of Cartesian functions: 232
    Spherical Harmonics?: false
    Max angular momentum: 2

  ==> DFJKGrad: Density-Fitted SCF Gradients <==

    Gradient:                    1
    J tasked:                  Yes
    K tasked:                  Yes
    wK tasked:                  No
    OpenMP threads:             16
    Integrals threads:          16
    Memory (MB):             78678
[...]
     12   H                0.36 -0.15  0.30   -0.06  0.02  0.01   -0.10  0.03 -0.05   
     13   H                0.27 -0.25  0.02    0.01 -0.01 -0.04   -0.09  0.09  0.00   
     14   C               -0.08 -0.03 -0.06    0.00  0.01  0.01    0.01  0.02  0.01   
     15   O                0.01  0.04  0.01   -0.00 -0.01  0.00   -0.00 -0.02  0.00   
     16   H                0.04  0.02  0.03    0.00  0.01 -0.01   -0.01  0.00 -0.01   
     17   CL               0.01 -0.01 -0.01   -0.00  0.00  0.00    0.01 -0.01 -0.01   
     18   CL              -0.01 -0.01  0.00   -0.00 -0.00  0.00   -0.04 -0.03  0.02   
     19   CL              -0.02 -0.01  0.01   -0.00 -0.00  0.00   -0.00 -0.01  0.00   

  Vibration                       40                  41                  42          
  Freq [cm^-1]                1260.1635           1329.7447           1375.8790       
  Irrep                           A                   A                   A           
  Reduced mass [u]              2.3706              1.7825              1.2986        
  Force const [mDyne/A]         2.2180              1.8571              1.4484        
  Turning point v=0 [a0]        0.2008              0.2254              0.2596        
  RMS dev v=0 [a0 u^1/2]        0.2186              0.2128              0.2092        
  Char temp [K]               1813.0920           1913.2036           1979.5806       
  ----------------------------------------------------------------------------------
      1   C                0.05 -0.03 -0.04   -0.01  0.00  0.01    0.00 -0.04 -0.01   
      2   O                0.03 -0.02 -0.01    0.02  0.03 -0.03    0.03 -0.01 -0.01   
      3   C                0.01  0.09  0.01   -0.02  0.01  0.01   -0.05 -0.04  0.03   
      4   C               -0.02 -0.09 -0.01    0.00  0.01  0.00   -0.00 -0.01  0.00   
      5   H                0.57 -0.04 -0.44    0.01  0.01 -0.01    0.57  0.06 -0.43   
      6   O                0.00  0.00 -0.00    0.03  0.03 -0.05   -0.00 -0.00  0.00   
      7   C               -0.12 -0.14  0.06    0.01  0.01 -0.00   -0.02  0.07  0.03   
      8   C               -0.12  0.16  0.13    0.01 -0.00 -0.01    0.06  0.06 -0.04   
      9   C               -0.00  0.04  0.01    0.00 -0.01 -0.00   -0.02 -0.04  0.01   
     10   H                0.47  0.10 -0.35   -0.00 -0.02 -0.00   -0.54 -0.10  0.40   
     11   C               -0.02  0.00 -0.01   -0.02 -0.08  0.01   -0.01  0.01 -0.00   
     12   H               -0.01  0.00 -0.01   -0.26  0.20 -0.24    0.00 -0.01  0.00   
     13   H                0.02  0.00  0.01    0.59 -0.20  0.06   -0.01  0.01  0.00   
     14   C               -0.00  0.01  0.00   -0.03  0.14  0.05   -0.00 -0.00 -0.00   
     15   O               -0.00 -0.01  0.00   -0.03 -0.14  0.05    0.00  0.00 -0.00   
     16   H                0.00  0.02 -0.01    0.11  0.57 -0.20   -0.01 -0.03  0.01   
     17   CL               0.02 -0.01 -0.02   -0.00  0.00  0.00   -0.00 -0.00  0.00   
     18   CL              -0.00 -0.00  0.00    0.00  0.00 -0.00    0.00  0.00 -0.00   
     19   CL               0.02  0.01 -0.01   -0.00 -0.00  0.00   -0.00 -0.00  0.00   

  Vibration                       43                  44                  45          
  Freq [cm^-1]                1386.5463           1401.4594           1483.5713       
  Irrep                           A                   A                   A           
  Reduced mass [u]              1.1984              4.4276              1.8696        
  Force const [mDyne/A]         1.3575              5.1236              2.4245        
  Turning point v=0 [a0]        0.2692              0.1393              0.2083        
  RMS dev v=0 [a0 u^1/2]        0.2084              0.2073              0.2014        
  Char temp [K]               1994.9283           2016.3849           2134.5255       
  ----------------------------------------------------------------------------------
      1   C               -0.02 -0.00  0.01   -0.19  0.08  0.17    0.04 -0.02 -0.03   
      2   O               -0.01 -0.04 -0.00    0.16 -0.10 -0.09    0.01 -0.01 -0.03   
      3   C               -0.01  0.02  0.01   -0.13  0.20  0.14   -0.05 -0.02  0.04   
      4   C               -0.01 -0.00  0.00   -0.07 -0.04  0.05   -0.00  0.04  0.01   
      5   H                0.02  0.00 -0.00    0.08 -0.01 -0.08    0.01  0.05  0.00   
      6   O                0.03  0.04 -0.05   -0.01 -0.01  0.01   -0.00 -0.04 -0.00   
      7   C                0.01  0.00 -0.01    0.06  0.07 -0.03    0.05 -0.01 -0.04   
      8   C                0.01  0.00 -0.01    0.14  0.01 -0.11   -0.04 -0.03  0.02   
      9   C               -0.00 -0.01 -0.00   -0.01 -0.20 -0.04    0.00  0.04  0.01   
     10   H                0.04 -0.01 -0.03    0.57 -0.17 -0.49    0.00  0.05  0.01   
     11   C                0.00  0.01 -0.00   -0.06  0.03 -0.02   -0.06  0.02  0.02   
     12   H                0.54 -0.34 -0.04   -0.10  0.04  0.03    0.58 -0.31 -0.22   
     13   H               -0.51  0.25  0.07    0.07 -0.02 -0.02    0.19 -0.14 -0.08   
     14   C                0.01  0.02  0.01   -0.01 -0.00 -0.00   -0.03  0.18  0.09   
     15   O               -0.03 -0.05  0.04    0.01  0.02 -0.02    0.03 -0.04 -0.05   
     16   H                0.07  0.47 -0.15   -0.04 -0.27  0.08   -0.08 -0.59  0.15   
     17   CL              -0.00  0.00  0.00   -0.01  0.00  0.01    0.00  0.00 -0.00   
     18   CL               0.00  0.00 -0.00    0.01  0.01 -0.01   -0.00  0.00  0.00   
     19   CL              -0.00 -0.00  0.00   -0.01 -0.01  0.00   -0.00 -0.00  0.00   

  Vibration                       46                  47                  48          
  Freq [cm^-1]                1504.3576           1601.9923           1650.7551       
  Irrep                           A                   A                   A           
  Reduced mass [u]              5.7737              1.8451              2.8368        
  Force const [mDyne/A]         7.6984              2.7899              4.5546        
  Turning point v=0 [a0]        0.1177              0.2018              0.1603        
  RMS dev v=0 [a0 u^1/2]        0.2000              0.1939              0.1910        
  Char temp [K]               2164.4323           2304.9068           2375.0654       
  ----------------------------------------------------------------------------------
      1   C               -0.15  0.05  0.12   -0.01 -0.02  0.00   -0.08 -0.09  0.04   
      2   O               -0.12  0.03  0.06   -0.00 -0.00 -0.03    0.04 -0.03 -0.02   
      3   C                0.28  0.08 -0.19    0.01  0.01  0.01   -0.10  0.11  0.10   
      4   C                0.08 -0.18 -0.10    0.03 -0.00 -0.02    0.12  0.03 -0.08   
      5   H               -0.26 -0.26  0.16   -0.09 -0.02  0.06   -0.43 -0.02  0.31   
      6   O               -0.00 -0.03 -0.00   -0.00  0.03 -0.00   -0.00 -0.00  0.00   
      7   C               -0.24  0.04  0.20   -0.02 -0.01  0.01   -0.03 -0.14 -0.01   
      8   C                0.15  0.14 -0.09    0.00  0.02  0.00   -0.06  0.12  0.08   
      9   C                0.00 -0.12 -0.03    0.01  0.00 -0.01    0.16 -0.00 -0.12   
     10   H               -0.16 -0.17  0.09   -0.06 -0.01  0.05   -0.49 -0.07  0.37   
     11   C                0.01 -0.01  0.02   -0.14  0.10  0.07    0.02 -0.02 -0.05   
     12   H                0.34 -0.15 -0.21    0.45 -0.28  0.02   -0.13 -0.06  0.24   
     13   H                0.03 -0.11 -0.09    0.67 -0.34 -0.09    0.00  0.23  0.20   
     14   C               -0.02  0.15  0.07    0.06 -0.16 -0.05   -0.01  0.03  0.00   
     15   O                0.02 -0.04 -0.03   -0.02  0.05  0.02    0.00 -0.01 -0.00   
     16   H               -0.05 -0.37  0.09    0.02  0.23 -0.05   -0.00 -0.04  0.01   
     17   CL              -0.01 -0.00  0.00    0.00 -0.00 -0.00    0.00 -0.00 -0.00   
     18   CL               0.01 -0.00 -0.01    0.00  0.00 -0.00    0.00  0.01 -0.00   
     19   CL               0.01  0.00 -0.01    0.00  0.00 -0.00    0.00  0.01 -0.00   

  Vibration                       49                  50                  51          
  Freq [cm^-1]                1662.8354           1743.5280           1791.2666       
  Irrep                           A                   A                   A           
  Reduced mass [u]              1.1521             10.3601              6.4787        
  Force const [mDyne/A]         1.8769             18.5554             12.2479        
  Turning point v=0 [a0]        0.2507              0.0816              0.1019        
  RMS dev v=0 [a0 u^1/2]        0.1903              0.1858              0.1833        
  Char temp [K]               2392.4463           2508.5448           2577.2298       
  ----------------------------------------------------------------------------------
      1   C                0.01  0.01 -0.01    0.02 -0.41 -0.10    0.17 -0.09 -0.16   
      2   O               -0.02  0.01  0.00    0.02 -0.04 -0.01    0.03 -0.01 -0.02   
      3   C                0.02 -0.02 -0.02    0.09  0.48  0.03   -0.22 -0.01  0.16   
      4   C               -0.01 -0.01  0.01   -0.04 -0.20 -0.02    0.31  0.03 -0.23   
      5   H                0.05 -0.00 -0.04   -0.00 -0.23 -0.05   -0.42 -0.05  0.30   
      6   O               -0.00 -0.00  0.00   -0.00 -0.00  0.00    0.00  0.00 -0.00   
      7   C               -0.00  0.03  0.01   -0.03  0.38  0.11   -0.16  0.06  0.14   
      8   C                0.01 -0.02 -0.02   -0.13 -0.41  0.01    0.15  0.04 -0.11   
      9   C               -0.03  0.00  0.02    0.08  0.20 -0.02   -0.28 -0.01  0.22   
     10   H                0.08  0.01 -0.06   -0.13  0.21  0.14    0.35  0.06 -0.27   
     11   C               -0.01 -0.01 -0.08    0.01 -0.01 -0.00    0.02 -0.01 -0.00   
     12   H               -0.01 -0.34  0.59   -0.06  0.06 -0.03   -0.07  0.08 -0.05   
     13   H                0.38  0.40  0.45   -0.07 -0.01 -0.02   -0.12  0.00 -0.03   
     14   C               -0.01  0.02  0.00   -0.00  0.00 -0.00   -0.01 -0.00  0.00   
     15   O                0.00 -0.01 -0.00    0.00  0.00  0.00    0.00  0.00  0.00   
     16   H               -0.01 -0.03  0.01    0.00 -0.00  0.00    0.00 -0.01  0.01   
     17   CL              -0.00  0.00  0.00    0.00  0.01  0.00   -0.00 -0.00  0.00   
     18   CL              -0.00 -0.00  0.00    0.00  0.01 -0.00   -0.00  0.00  0.00   
     19   CL              -0.00 -0.00  0.00   -0.00 -0.01 -0.00    0.00 -0.00 -0.00   

  Vibration                       52                  53                  54          
  Freq [cm^-1]                2063.7107           3258.8549           3318.0303       
  Irrep                           A                   A                   A           
  Reduced mass [u]             10.2778              1.0566              1.1119        
  Force const [mDyne/A]        25.7898              6.6116              7.2125        
  Turning point v=0 [a0]        0.0753              0.1870              0.1806        
  RMS dev v=0 [a0 u^1/2]        0.1708              0.1359              0.1347        
  Char temp [K]               2969.2158           4688.7595           4773.8996       
  ----------------------------------------------------------------------------------
      1   C               -0.00 -0.00  0.00   -0.00  0.00  0.00   -0.00 -0.00  0.00   
      2   O               -0.01  0.01  0.01   -0.00  0.00  0.00    0.00  0.00 -0.00   
      3   C                0.00 -0.00 -0.01    0.00 -0.00 -0.00    0.00  0.00 -0.00   
      4   C               -0.00 -0.00  0.00   -0.00 -0.00  0.00   -0.00  0.00  0.00   
      5   H                0.01  0.00 -0.00    0.00  0.00  0.00    0.00 -0.01 -0.00   
      6   O                0.21  0.23 -0.34    0.00  0.00 -0.00    0.00  0.00 -0.00   
      7   C                0.00  0.00 -0.00    0.00 -0.00 -0.00    0.00 -0.00 -0.00   
      8   C               -0.00 -0.00  0.00   -0.00 -0.00  0.00    0.00  0.00 -0.00   
      9   C                0.00  0.00 -0.00    0.00  0.00 -0.00   -0.00 -0.00  0.00   
     10   H               -0.00 -0.00  0.00   -0.00 -0.00  0.00   -0.00  0.00  0.00   
     11   C                0.05 -0.00 -0.06   -0.02 -0.00 -0.06   -0.04 -0.08  0.02   
     12   H               -0.16  0.03  0.10    0.37  0.53  0.25    0.38  0.54  0.27   
     13   H                0.08 -0.07 -0.11   -0.15 -0.49  0.50    0.15  0.47 -0.49   
     14   C               -0.35 -0.34  0.55   -0.00  0.00  0.00   -0.00 -0.00  0.00   
     15   O                0.03  0.05 -0.04   -0.00 -0.00 -0.00   -0.00  0.00 -0.00   
     16   H               -0.06 -0.40  0.12   -0.00 -0.00  0.00   -0.00  0.00 -0.00   
     17   CL              -0.00  0.00  0.00   -0.00  0.00  0.00   -0.00  0.00  0.00   
     18   CL               0.00  0.00 -0.00    0.00 -0.00  0.00    0.00 -0.00  0.00   
     19   CL              -0.00 -0.00  0.00    0.00 -0.00  0.00    0.00  0.00 -0.00   

  Vibration                       55                  56                  57          
  Freq [cm^-1]                3411.2779           3421.2824           4046.5053       
  Irrep                           A                   A                   A           
  Reduced mass [u]              1.0937              1.0941              1.0651        
  Force const [mDyne/A]         7.4989              7.5455             10.2752        
  Turning point v=0 [a0]        0.1796              0.1793              0.1671        
  RMS dev v=0 [a0 u^1/2]        0.1328              0.1326              0.1220        
  Char temp [K]               4908.0619           4922.4562           5822.0113       
  ----------------------------------------------------------------------------------
      1   C               -0.00  0.00  0.00   -0.00  0.00  0.00   -0.00 -0.00  0.00   
      2   O               -0.00  0.00  0.00    0.00 -0.00 -0.00   -0.00  0.00  0.00   
      3   C                0.00  0.00 -0.00   -0.00  0.00  0.00    0.00 -0.00 -0.00   
      4   C               -0.00 -0.09 -0.02    0.00  0.01  0.00   -0.00 -0.00  0.00   
      5   H                0.04  0.97  0.20   -0.00 -0.07 -0.01    0.00  0.00 -0.00   
      6   O                0.00 -0.00 -0.00    0.00  0.00 -0.00    0.00  0.00 -0.00   
      7   C               -0.00  0.00  0.00    0.00  0.00 -0.00    0.00  0.00 -0.00   
      8   C                0.00  0.00 -0.00    0.00  0.00 -0.00    0.00 -0.00 -0.00   
      9   C               -0.00 -0.01 -0.00   -0.00 -0.09 -0.02   -0.00  0.00 -0.00   
     10   H                0.00  0.07  0.01    0.04  0.98  0.19   -0.00  0.00  0.00   
     11   C               -0.00 -0.00  0.00    0.00  0.00 -0.00   -0.00  0.00  0.00   
     12   H                0.00  0.00  0.00   -0.00 -0.00 -0.00    0.00 -0.00 -0.00   
     13   H                0.00  0.01 -0.01   -0.00 -0.00  0.00   -0.00  0.00 -0.00   
     14   C               -0.00  0.00  0.00   -0.00 -0.00  0.00    0.00 -0.00 -0.00   
     15   O               -0.00 -0.00 -0.00   -0.00  0.00  0.00    0.03 -0.02 -0.05   
     16   H                0.00 -0.00 -0.00   -0.00  0.00 -0.00   -0.51  0.37  0.77   
     17   CL               0.00 -0.00 -0.00   -0.00  0.00  0.00   -0.00  0.00  0.00   
     18   CL              -0.00 -0.00  0.00    0.00  0.00 -0.00   -0.00  0.00  0.00   
     19   CL               0.00  0.00 -0.00   -0.00 -0.00  0.00   -0.00 -0.00  0.00   

  ==> Thermochemistry Components <==

  Entropy, S
    Electronic S            0.000 [cal/(mol K)]        0.000 [J/(mol K)]       0.00000000 [mEh/K] (multiplicity = 1)
    Translational S        42.496 [cal/(mol K)]      177.803 [J/(mol K)]       0.06772143 [mEh/K] (mol. weight = 253.9304 [u], P = 101325.00 [Pa])
    Rotational S           33.366 [cal/(mol K)]      139.603 [J/(mol K)]       0.05317206 [mEh/K] (symmetry no. = 1)
    Vibrational S          38.235 [cal/(mol K)]      159.976 [J/(mol K)]       0.06093148 [mEh/K]
  Total S                 114.097 [cal/(mol K)]      477.381 [J/(mol K)]       0.18182497 [mEh/K]
  Correction S              0.000 [cal/(mol K)]        0.000 [J/(mol K)]       0.00000000 [mEh/K]

  Constant volume heat capacity, Cv
    Electronic Cv           0.000 [cal/(mol K)]        0.000 [J/(mol K)]       0.00000000 [mEh/K]
    Translational Cv        2.981 [cal/(mol K)]       12.472 [J/(mol K)]       0.00475022 [mEh/K]
    Rotational Cv           2.981 [cal/(mol K)]       12.472 [J/(mol K)]       0.00475022 [mEh/K]
    Vibrational Cv         36.106 [cal/(mol K)]      151.067 [J/(mol K)]       0.05753836 [mEh/K]
  Total Cv                 42.067 [cal/(mol K)]      176.010 [J/(mol K)]       0.06703880 [mEh/K]
  Correction Cv             0.000 [cal/(mol K)]        0.000 [J/(mol K)]       0.00000000 [mEh/K]

  Constant pressure heat capacity, Cp
    Electronic Cp           0.000 [cal/(mol K)]        0.000 [J/(mol K)]       0.00000000 [mEh/K]
    Translational Cp        4.968 [cal/(mol K)]       20.786 [J/(mol K)]       0.00791704 [mEh/K]
    Rotational Cp           2.981 [cal/(mol K)]       12.472 [J/(mol K)]       0.00475022 [mEh/K]
    Vibrational Cp         36.106 [cal/(mol K)]      151.067 [J/(mol K)]       0.05753836 [mEh/K]
  Total Cp                 44.055 [cal/(mol K)]      184.325 [J/(mol K)]       0.07020562 [mEh/K]
  Correction Cp             0.000 [cal/(mol K)]        0.000 [J/(mol K)]       0.00000000 [mEh/K]

  ==> Thermochemistry Energy Analysis <==

  Raw electronic energy, E0
  Total E0, Electronic energy at well bottom at 0 [K]                -1908.87490607 [Eh]

  Zero-point energy, ZPE_vib = Sum_i nu_i / 2
    Electronic ZPE          0.000 [kcal/mol]        0.000 [kJ/mol]       0.00000000 [Eh]
    Translational ZPE       0.000 [kcal/mol]        0.000 [kJ/mol]       0.00000000 [Eh]
    Rotational ZPE          0.000 [kcal/mol]        0.000 [kJ/mol]       0.00000000 [Eh]
    Vibrational ZPE        81.142 [kcal/mol]      339.500 [kJ/mol]       0.12930863 [Eh]       28379.961 [cm^-1]
  Correction ZPE           81.142 [kcal/mol]      339.500 [kJ/mol]       0.12930863 [Eh]       28379.961 [cm^-1]
  Total ZPE, Electronic energy at 0 [K]                              -1908.74559743 [Eh]

  Thermal Energy, E (includes ZPE)
    Electronic E            0.000 [kcal/mol]        0.000 [kJ/mol]       0.00000000 [Eh]
    Translational E         0.889 [kcal/mol]        3.718 [kJ/mol]       0.00141628 [Eh]
    Rotational E            0.889 [kcal/mol]        3.718 [kJ/mol]       0.00141628 [Eh]
    Vibrational E          86.796 [kcal/mol]      363.154 [kJ/mol]       0.13831806 [Eh]
  Correction E             88.573 [kcal/mol]      370.591 [kJ/mol]       0.14115062 [Eh]
  Total E, Electronic energy at  298.15 [K]                          -1908.73375545 [Eh]

  Enthalpy, H_trans = E_trans + k_B * T
    Electronic H            0.000 [kcal/mol]        0.000 [kJ/mol]       0.00000000 [Eh]
    Translational H         1.481 [kcal/mol]        6.197 [kJ/mol]       0.00236046 [Eh]
    Rotational H            0.889 [kcal/mol]        3.718 [kJ/mol]       0.00141628 [Eh]
    Vibrational H          86.796 [kcal/mol]      363.154 [kJ/mol]       0.13831806 [Eh]
  Correction H             89.166 [kcal/mol]      373.070 [kJ/mol]       0.14209480 [Eh]
  Total H, Enthalpy at  298.15 [K]                                   -1908.73281127 [Eh]

  Gibbs free energy, G = H - T * S
    Electronic G            0.000 [kcal/mol]        0.000 [kJ/mol]       0.00000000 [Eh]
    Translational G       -11.189 [kcal/mol]      -46.814 [kJ/mol]      -0.01783068 [Eh]
    Rotational G           -9.059 [kcal/mol]      -37.904 [kJ/mol]      -0.01443697 [Eh]
    Vibrational G          75.396 [kcal/mol]      315.457 [kJ/mol]       0.12015134 [Eh]
  Correction G             55.148 [kcal/mol]      230.739 [kJ/mol]       0.08788369 [Eh]
  Total G, Free enthalpy at  298.15 [K]                              -1908.78702238 [Eh]

    Psi4 stopped on: Thursday, 27 September 2018 01:10PM
    Psi4 wall time for execution: 0:21:27.87

*** Psi4 exiting successfully. Buy a developer a beer!
