
    -----------------------------------------------------------------------
          Psi4: An Open-Source Ab Initio Electronic Structure Package
                               Psi4 1.1a2.dev170 

                         Git: Rev {master} e4fcd91 dirty


    J. M. Turney, A. C. Simmonett, R. M. Parrish, E. G. Hohenstein,
    F. A. Evangelista, J. T. Fermann, B. J. Mintz, L. A. Burns, J. J. Wilke,
    M. L. Abrams, N. J. Russ, M. L. Leininger, C. L. Janssen, E. T. Seidl,
    W. D. Allen, H. F. Schaefer, R. A. King, E. F. Valeev, C. D. Sherrill,
    and T. D. Crawford, WIREs Comput. Mol. Sci. 2, 556-565 (2012)
    (doi: 10.1002/wcms.93)


                         Additional Contributions by
    A. E. DePrince, U. Bozkaya, A. Yu. Sokolov, D. G. A. Smith, R. Di Remigio,
    R. M. Richard, J. F. Gonthier, H. R. McAlexander, M. Saitow, and
    B. P. Pritchard
    -----------------------------------------------------------------------


    Psi4 started on: Tuesday, 04 April 2017 09:43AM

    Process ID:  42486
    PSIDATADIR: /usr/local/hpc5/psi4conda/envs/p4env/share/psi4
    Memory:     500.0 MiB
    Threads:    16
    
  ==> Input File <==

--------------------------------------------------------------------------
memory 110 Gb

molecule molecule_2 {
0 1
C         -0.72000        0.01200        0.00600
H         -1.07500        1.03800       -0.01800
H         -1.10700       -0.46000        0.90200
H         -1.12100       -0.50600       -0.85800
O          0.68200       -0.06400       -0.00400
H          1.05500        0.80200       -0.03000
}

set globals {
  reference rhf
  opt_type ts
  g_convergence gau_tight
  basis 6-31G(d)
}
optimize('scf')
--------------------------------------------------------------------------

  Memory set to 110.000 GiB by Python script.
gradient() will perform analytic gradient computation.

*** tstart() called on wr30
*** at Tue Apr  4 09:43:44 2017


         ---------------------------------------------------------
                                   SCF
            by Justin Turney, Rob Parrish, and Andy Simmonett
                              RHF Reference
                       16 Threads, 110000 MiB Core
         ---------------------------------------------------------

  ==> Geometry <==

    Molecular point group: c1
    Full point group: C1

    Geometry (in Angstrom), charge = 0, multiplicity = 1:

       Center              X                  Y                   Z               Mass       
    ------------   -----------------  -----------------  -----------------  -----------------
           C         -0.720091834095     0.011963637839     0.005875444494    12.000000000000
           H         -1.075091834095     1.037963637839    -0.018124555506     1.007825032070
           H         -1.107091834095    -0.460036362161     0.901875444494     1.007825032070
           H         -1.121091834095    -0.506036362161    -0.858124555506     1.007825032070
           O          0.681908165905    -0.064036362161    -0.004124555506    15.994914619560
           H          1.054908165905     0.801963637839    -0.030124555506     1.007825032070

  Running in c1 symmetry.

  Rotational constants: A =      4.39548  B =      0.84239  C =      0.81349 [cm^-1]
  Rotational constants: A = 131773.28641  B =  25254.21718  C =  24387.68249 [MHz]
  Nuclear repulsion =   40.722653354514378

  Charge       = 0
  Multiplicity = 1
  Electrons    = 18
  Nalpha       = 9
  Nbeta        = 9

  ==> Algorithm <==

  SCF Algorithm Type is DF.
  DIIS enabled.
  MOM disabled.
  Fractional occupation disabled.
  Guess Type is SAD.
  Energy threshold   = 1.00e-08
  Density threshold  = 1.00e-08
  Integral threshold = 0.00e+00

  ==> Primary Basis <==

  Basis Set: file /usr/local/hpc5/psi4conda/envs/p4env/share/psi4/basis/6-31g_d_.gbs
    Number of shells: 20
    Number of basis function: 38
    Number of Cartesian functions: 38
    Spherical Harmonics?: false
    Max angular momentum: 2

  ==> Pre-Iterations <==

   -------------------------------------------------------
    Irrep   Nso     Nmo     Nalpha   Nbeta   Ndocc  Nsocc
   -------------------------------------------------------
     A         38      38       0       0       0       0
   -------------------------------------------------------
    Total      38      38       9       9       9       0
   -------------------------------------------------------

  ==> Integral Setup <==

  ==> DFJK: Density-Fitted J/K Matrices <==

    J tasked:                  Yes
    K tasked:                  Yes
    wK tasked:                  No
    OpenMP threads:             16
    Integrals threads:          16
    Memory (MB):             78678
    Algorithm:                Core
    Integral Cache:           NONE
    Schwarz Cutoff:          1E-12
    Fitting Condition:       1E-12

   => Auxiliary Basis Set <=

  Basis Set: file /usr/local/hpc5/psi4conda/envs/p4env/share/psi4/basis/cc-pvdz-jkfit.gbs
    Number of shells: 84
    Number of basis function: 262
    Number of Cartesian functions: 262
    Spherical Harmonics?: false
    Max angular momentum: 3

  Minimum eigenvalue in the overlap matrix is 9.3343113747E-03.
  Using Symmetric Orthogonalization.

  SCF Guess: Superposition of Atomic Densities via on-the-fly atomic UHF.

  ==> Iterations <==

                           Total Energy        Delta E     RMS |[F,P]|

   @DF-RHF iter   0:  -115.52037381419376   -1.15520e+02   6.78989e-02 
   @DF-RHF iter   1:  -114.93162982641472    5.88744e-01   1.15052e-02 
   @DF-RHF iter   2:  -115.00726529548635   -7.56355e-02   6.71248e-03 DIIS
   @DF-RHF iter   3:  -115.03107646681507   -2.38112e-02   1.18817e-03 DIIS
   @DF-RHF iter   4:  -115.03306469993457   -1.98823e-03   2.61588e-04 DIIS
   @DF-RHF iter   5:  -115.03317833710483   -1.13637e-04   7.44150e-05 DIIS
   @DF-RHF iter   6:  -115.03318616976011   -7.83266e-06   1.83866e-05 DIIS
   @DF-RHF iter   7:  -115.03318664136179   -4.71602e-07   4.14194e-06 DIIS
   @DF-RHF iter   8:  -115.03318666793329   -2.65715e-08   8.68681e-07 DIIS
   @DF-RHF iter   9:  -115.03318666930542   -1.37213e-09   1.76988e-07 DIIS
   @DF-RHF iter  10:  -115.03318666936892   -6.34941e-11   3.30841e-08 DIIS
   @DF-RHF iter  11:  -115.03318666937150   -2.58638e-12   8.04177e-09 DIIS

  ==> Post-Iterations <==

    Orbital Energies (a.u.)
    -----------------------

    Doubly Occupied:                                                      

       1A    -20.553058     2A    -11.266898     3A     -1.357939  
       4A     -0.927376     5A     -0.693483     6A     -0.619170  
       7A     -0.595873     8A     -0.496975     9A     -0.441074  

    Virtual:                                                              

      10A      0.222118    11A      0.278445    12A      0.325772  
      13A      0.332003    14A      0.395279    15A      0.763051  
      16A      0.763764    17A      0.796703    18A      1.084878  
      19A      1.135692    20A      1.135755    21A      1.184244  
      22A      1.218512    23A      1.250186    24A      1.273258  
      25A      1.447402    26A      1.726622    27A      1.761454  
      28A      1.817034    29A      2.045731    30A      2.427247  
      31A      2.459526    32A      2.511408    33A      2.609807  
      34A      2.736777    35A      2.901138    36A      3.167887  
      37A      4.139762    38A      4.645350  

    Final Occupation by Irrep:
              A 
    DOCC [     9 ]

  Energy converged.

  @DF-RHF Final Energy:  -115.03318666937150

   => Energetics <=

    Nuclear Repulsion Energy =             40.7226533545143781
    One-Electron Energy =                -237.6079849691375045
    Two-Electron Energy =                  81.8521449452516094
    DFT Exchange-Correlation Energy =       0.0000000000000000
    Empirical Dispersion Energy =           0.0000000000000000
    PCM Polarization Energy =               0.0000000000000000
    EFP Energy =                            0.0000000000000000
    Total Energy =                       -115.0331866693715028

    Alert: EFP and PCM quantities not currently incorporated into SCF psivars.

Properties will be evaluated at   0.000000,   0.000000,   0.000000 Bohr

Properties computed using the SCF density matrix

  Nuclear Dipole Moment: (a.u.)
     X:    -2.1045      Y:     0.8189      Z:    -0.0042

  Electronic Dipole Moment: (a.u.)
     X:     1.7243      Y:    -0.1477      Z:    -0.0101

  Dipole Moment: (a.u.)
     X:    -0.3802      Y:     0.6712      Z:    -0.0144     Total:     0.7715

  Dipole Moment: (Debye)
     X:    -0.9663      Y:     1.7060      Z:    -0.0365     Total:     1.9610


*** tstop() called on wr30 at Tue Apr  4 09:43:46 2017
Module time:
	user time   =      21.53 seconds =       0.36 minutes
	system time =       0.64 seconds =       0.01 minutes
	total time  =          2 seconds =       0.03 minutes
Total time:
	user time   =      21.53 seconds =       0.36 minutes
	system time =       0.64 seconds =       0.01 minutes
	total time  =          2 seconds =       0.03 minutes

*** tstart() called on wr30
*** at Tue Apr  4 09:43:46 2017


         ------------------------------------------------------------
                                   SCF GRAD                          
                          Rob Parrish, Justin Turney,                
                       Andy Simmonett, and Alex Sokolov              
         ------------------------------------------------------------

  ==> Geometry <==

    Molecular point group: c1
    Full point group: C1

    Geometry (in Angstrom), charge = 0, multiplicity = 1:

       Center              X                  Y                   Z               Mass       
    ------------   -----------------  -----------------  -----------------  -----------------
           C         -0.720091834095     0.011963637839     0.005875444494    12.000000000000
           H         -1.075091834095     1.037963637839    -0.018124555506     1.007825032070
           H         -1.107091834095    -0.460036362161     0.901875444494     1.007825032070
           H         -1.121091834095    -0.506036362161    -0.858124555506     1.007825032070
           O          0.681908165905    -0.064036362161    -0.004124555506    15.994914619560
           H          1.054908165905     0.801963637839    -0.030124555506     1.007825032070

  Nuclear repulsion =   40.722653354514378

  ==> Basis Set <==

  Basis Set: file /usr/local/hpc5/psi4conda/envs/p4env/share/psi4/basis/6-31g_d_.gbs
    Number of shells: 20
    Number of basis function: 38
    Number of Cartesian functions: 38
    Spherical Harmonics?: false
    Max angular momentum: 2

  ==> DFJKGrad: Density-Fitted SCF Gradients <==

    Gradient:                    1
    J tasked:                  Yes
    K tasked:                  Yes
    wK tasked:                  No
    OpenMP threads:             16
    Integrals threads:          16
    Memory (MB):             78678
    Schwarz Cutoff:          0E+00
    Fitting Condition:       1E-12

   => Auxiliary Basis Set <=

  Basis Set: file /usr/local/hpc5/psi4conda/envs/p4env/share/psi4/basis/cc-pvdz-jkfit.gbs
    Number of shells: 84
    Number of basis function: 262
    Number of Cartesian functions: 262
    Spherical Harmonics?: false
    Max angular momentum: 3


  -Total Gradient:
     Atom            X                  Y                   Z
    ------   -----------------  -----------------  -----------------
       1       -0.000472670953    -0.000280132533     0.000203166544
       2       -0.000008814906     0.000151861291    -0.000012600528
       3       -0.000049724149     0.000073440258    -0.000107194324
       4        0.000039520190     0.000031627969     0.000004867614
       5        0.000927596559     0.000984117319    -0.000108727309
       6       -0.000435906743    -0.000960914304     0.000020488003


*** tstop() called on wr30 at Tue Apr  4 09:43:47 2017
Module time:
	user time   =      14.95 seconds =       0.25 minutes
	system time =       0.56 seconds =       0.01 minutes
	total time  =          1 seconds =       0.02 minutes
Total time:
	user time   =      36.49 seconds =       0.61 minutes
	system time =       1.20 seconds =       0.02 minutes
	total time  =          3 seconds =       0.05 minutes

			-----------------------------------------
			 OPTKING 2.0: for geometry optimizations 
			  - R.A. King,  Bethel University        
			-----------------------------------------

	Internal coordinates to be generated automatically.
	Detected frag 1 with atoms:  1 2 3 4 5 6
	---Fragment 1 Bond Connectivity---
	 1 : 2 3 4 5
	 2 : 1
	 3 : 1
	 4 : 1
	 5 : 1 6
	 6 : 5

	---Fragment 1 Geometry and Gradient---
	 C          -1.3607763570        0.0226079991        0.0111029810
	 H          -2.0316291341        1.9614670114       -0.0342504462
	 H          -2.0921003704       -0.8693427357        1.7042975961
	 H          -2.1185565363       -0.9562701378       -1.6216203978
	 O           1.2886196813       -0.1210111870       -0.0077942803
	 H           1.9934875289        1.5154916440       -0.0569271598
	            -0.0004726710       -0.0002801325        0.0002031665
	            -0.0000088149        0.0001518613       -0.0000126005
	            -0.0000497241        0.0000734403       -0.0001071943
	             0.0000395202        0.0000316280        0.0000048676
	             0.0009275966        0.0009841173       -0.0001087273
	            -0.0004359067       -0.0009609143        0.0000204880

	Previous optimization step data not found.  Starting new optimization.

	---Fragment 1 Intrafragment Coordinates---
	 - Coordinate -           - BOHR/RAD -       - ANG/DEG -
	 R(1,2)           =         2.052139	       1.085945
	 R(1,3)           =         2.048736	       1.084144
	 R(1,4)           =         2.048956	       1.084261
	 R(1,5)           =         2.653353	       1.404094
	 R(5,6)           =         1.782525	       0.943271
	 B(1,5,6)         =         1.923403	     110.202887
	 B(2,1,3)         =         1.889048	     108.234451
	 B(2,1,4)         =         1.889000	     108.231711
	 B(2,1,5)         =         1.957782	     112.172649
	 B(3,1,4)         =         1.895002	     108.575621
	 B(3,1,5)         =         1.916386	     109.800855
	 B(4,1,5)         =         1.915323	     109.739936
	 D(2,1,5,6)       =         0.000018	       0.001033
	 D(3,1,5,6)       =        -2.101151	    -120.387078
	 D(4,1,5,6)       =         2.100400	     120.344079

	Current energy   :      -115.0331866694

	Generating empirical Hessian (Schlegel '84) for each fragment.
	Taking PRFO optimization step.
	Maximizing along 1 lowest eigenvalue of Hessian.

 RFO min eigenvalues
 -0.000003 -0.000000  0.000000  0.004404  0.096619  0.099347  0.160000  0.160000
  0.160000  0.160000  0.352855  0.354844  0.354982  0.449488  0.592331

 RFO max eigenvalues
 -0.000000  0.000000
	Norm of target step-size    0.00334

	Back-transformation to cartesian coordinates...
	Could not converge backtransformation.
	Using first guess instead.

	--- Internal Coordinate Step in ANG or DEG, aJ/ANG or AJ/DEG ---
	 ---------------------------------------------------------------------------
	   Coordinate                Previous        Force       Change         New 
	   ----------                --------       ------       ------       ------
	    1 R(1,2)          =      1.085945    -0.001208    -0.000220     1.085725
	    2 R(1,3)          =      1.084144     0.000847     0.000154     1.084298
	    3 R(1,4)          =      1.084261     0.000277     0.000050     1.084311
	    4 R(1,5)          =      1.404094    -0.004040    -0.000577     1.403517
	    5 R(5,6)          =      0.943271     0.008693     0.000943     0.944215
	    6 B(1,5,6)        =    110.202887     0.000003     0.012880   110.215767
	    7 B(2,1,3)        =    108.234451     0.000002     0.003230   108.237681
	    8 B(2,1,4)        =    108.231711    -0.000000     0.011955   108.243666
	    9 B(2,1,5)        =    112.172649     0.000007     0.038375   112.211024
	   10 B(3,1,4)        =    108.575621     0.000000    -0.007181   108.568440
	   11 B(3,1,5)        =    109.800855    -0.000013    -0.070214   109.730642
	   12 B(4,1,5)        =    109.739936     0.000004     0.023405   109.763341
	   13 D(2,1,5,6)      =      0.001033    -0.000001     0.036936     0.037969
	   14 D(3,1,5,6)      =   -120.387078    -0.000000     0.055685  -120.331394
	   15 D(4,1,5,6)      =    120.344079     0.000001     0.093174   120.437252
	 ---------------------------------------------------------------------------
	Successfully symmetrized geometry.

  ==> Convergence Check <==

  Measures of convergence in internal coordinates in au.
  Criteria marked as inactive (o), active & met (*), and active & unmet ( ).
  --------------------------------------------------------------------------------------------- ~
   Step     Total Energy     Delta E     MAX Force     RMS Force      MAX Disp      RMS Disp    ~
  --------------------------------------------------------------------------------------------- ~
    Convergence Criteria             o    1.50e-05 *    1.00e-05 *    6.00e-05 *    4.00e-05 *  ~
  --------------------------------------------------------------------------------------------- ~
      1    -115.03318667   -1.15e+02 o    1.06e-03      3.10e-04      1.78e-03      8.51e-04    ~
  ---------------------------------------------------------------------------------------------

	Writing optimization data to binary file.
	Structure for next step:
	Cartesian Geometry (in Angstrom)
	    C    -0.7200697308   0.0121786915   0.0054623468
	    H    -1.0752353796   1.0378924478  -0.0183737995
	    H    -1.1062712427  -0.4599105700   0.9019456577
	    H    -1.1215748705  -0.5062292704  -0.8581215104
	    O     0.6813231789  -0.0643949828  -0.0042395627
	    H     1.0552770402   0.8022455109  -0.0294204649
			--------------------------
			 OPTKING Finished Execution 
			--------------------------

    Structure for next step:
    Molecular point group: c1
    Full point group: C1

    Geometry (in Angstrom), charge = 0, multiplicity = 1:

    C           -0.719803564795     0.012272701129     0.005657951075
    H           -1.074969213642     1.037986457382    -0.018178195223
    H           -1.106005076750    -0.459816560454     0.902141261966
    H           -1.121308704499    -0.506135260797    -0.857925906139
    O            0.681589344894    -0.064300973180    -0.004043958379
    H            1.055543206147     0.802339520475    -0.029224860641

gradient() will perform analytic gradient computation.

*** tstart() called on wr30
*** at Tue Apr  4 09:43:47 2017


         ---------------------------------------------------------
                                   SCF
            by Justin Turney, Rob Parrish, and Andy Simmonett
                              RHF Reference
                       16 Threads, 110000 MiB Core
         ---------------------------------------------------------

  ==> Geometry <==

    Molecular point group: c1
    Full point group: C1

    Geometry (in Angstrom), charge = 0, multiplicity = 1:

       Center              X                  Y                   Z               Mass       
    ------------   -----------------  -----------------  -----------------  -----------------
           C         -0.719803564795     0.012272701129     0.005657951075    12.000000000000
           H         -1.074969213642     1.037986457382    -0.018178195223     1.007825032070
           H         -1.106005076750    -0.459816560454     0.902141261966     1.007825032070
           H         -1.121308704499    -0.506135260797    -0.857925906139     1.007825032070
           O          0.681589344894    -0.064300973180    -0.004043958379    15.994914619560
           H          1.055543206147     0.802339520475    -0.029224860641     1.007825032070

  Running in c1 symmetry.

  Rotational constants: A =      4.39398  B =      0.84293  C =      0.81395 [cm^-1]
  Rotational constants: A = 131728.20977  B =  25270.26594  C =  24401.46332 [MHz]
  Nuclear repulsion =   40.726919435145788

  Charge       = 0
  Multiplicity = 1
  Electrons    = 18
  Nalpha       = 9
  Nbeta        = 9

  ==> Algorithm <==

  SCF Algorithm Type is DF.
  DIIS enabled.
  MOM disabled.
  Fractional occupation disabled.
  Guess Type is READ.
  Energy threshold   = 1.00e-08
  Density threshold  = 1.00e-08
  Integral threshold = 0.00e+00

  ==> Primary Basis <==

  Basis Set: file /usr/local/hpc5/psi4conda/envs/p4env/share/psi4/basis/6-31g_d_.gbs
    Number of shells: 20
    Number of basis function: 38
    Number of Cartesian functions: 38
    Spherical Harmonics?: false
    Max angular momentum: 2

  Reading orbitals from file 180, no projection.

  ==> Pre-Iterations <==

   -------------------------------------------------------
    Irrep   Nso     Nmo     Nalpha   Nbeta   Ndocc  Nsocc
   -------------------------------------------------------
     A         38      38       0       0       0       0
   -------------------------------------------------------
    Total      38      38       9       9       9       0
   -------------------------------------------------------

  ==> Integral Setup <==

  ==> DFJK: Density-Fitted J/K Matrices <==

    J tasked:                  Yes
    K tasked:                  Yes
    wK tasked:                  No
    OpenMP threads:             16
    Integrals threads:          16
    Memory (MB):             78678
    Algorithm:                Core
    Integral Cache:           NONE
    Schwarz Cutoff:          1E-12
    Fitting Condition:       1E-12

   => Auxiliary Basis Set <=

  Basis Set: file /usr/local/hpc5/psi4conda/envs/p4env/share/psi4/basis/cc-pvdz-jkfit.gbs
    Number of shells: 84
    Number of basis function: 262
    Number of Cartesian functions: 262
    Spherical Harmonics?: false
    Max angular momentum: 3

  Minimum eigenvalue in the overlap matrix is 9.3255790719E-03.
  Using Symmetric Orthogonalization.

  SCF Guess: Orbitals guess was supplied from a previous computation.

  ==> Iterations <==

                           Total Energy        Delta E     RMS |[F,P]|

   @DF-RHF iter   0:  -115.03291365190621   -1.15033e+02   6.60109e-05 
   @DF-RHF iter   1:  -115.03318789927488   -2.74247e-04   8.62208e-06 
   @DF-RHF iter   2:  -115.03318797182534   -7.25505e-08   2.48243e-06 DIIS
   @DF-RHF iter   3:  -115.03318797999005   -8.16470e-09   9.90058e-07 DIIS
   @DF-RHF iter   4:  -115.03318798171566   -1.72561e-09   3.04203e-07 DIIS
   @DF-RHF iter   5:  -115.03318798188332   -1.67660e-10   9.01841e-08 DIIS
   @DF-RHF iter   6:  -115.03318798190273   -1.94120e-11   1.84893e-08 DIIS
   @DF-RHF iter   7:  -115.03318798190331   -5.82645e-13   7.30812e-09 DIIS

  ==> Post-Iterations <==

    Orbital Energies (a.u.)
    -----------------------

    Doubly Occupied:                                                      

       1A    -20.553141     2A    -11.266818     3A     -1.357918  
       4A     -0.927250     5A     -0.693456     6A     -0.619215  
       7A     -0.595906     8A     -0.496920     9A     -0.440950  

    Virtual:                                                              

      10A      0.221987    11A      0.278431    12A      0.325828  
      13A      0.332004    14A      0.395420    15A      0.763087  
      16A      0.763781    17A      0.797035    18A      1.084422  
      19A      1.135688    20A      1.135710    21A      1.183969  
      22A      1.218555    23A      1.250107    24A      1.273030  
      25A      1.447544    26A      1.726910    27A      1.761437  
      28A      1.816955    29A      2.045734    30A      2.428182  
      31A      2.459418    32A      2.512000    33A      2.609848  
      34A      2.737019    35A      2.900711    36A      3.167912  
      37A      4.139782    38A      4.645330  

    Final Occupation by Irrep:
              A 
    DOCC [     9 ]

  Energy converged.

  @DF-RHF Final Energy:  -115.03318798190331

   => Energetics <=

    Nuclear Repulsion Energy =             40.7269194351457884
    One-Electron Energy =                -237.6170682104581999
    Two-Electron Energy =                  81.8569607934091010
    DFT Exchange-Correlation Energy =       0.0000000000000000
    Empirical Dispersion Energy =           0.0000000000000000
    PCM Polarization Energy =               0.0000000000000000
    EFP Energy =                            0.0000000000000000
    Total Energy =                       -115.0331879819033105



Properties will be evaluated at   0.000000,   0.000000,   0.000000 Bohr

Properties computed using the SCF density matrix

  Nuclear Dipole Moment: (a.u.)
     X:    -2.1030      Y:     0.8194      Z:    -0.0030

  Electronic Dipole Moment: (a.u.)
     X:     1.7242      Y:    -0.1476      Z:    -0.0110

  Dipole Moment: (a.u.)
     X:    -0.3787      Y:     0.6718      Z:    -0.0140     Total:     0.7713

  Dipole Moment: (Debye)
     X:    -0.9626      Y:     1.7076      Z:    -0.0356     Total:     1.9606


*** tstop() called on wr30 at Tue Apr  4 09:43:48 2017
Module time:
	user time   =       6.92 seconds =       0.12 minutes
	system time =       0.21 seconds =       0.00 minutes
	total time  =          1 seconds =       0.02 minutes
Total time:
	user time   =      43.75 seconds =       0.73 minutes
	system time =       1.43 seconds =       0.02 minutes
	total time  =          4 seconds =       0.07 minutes

*** tstart() called on wr30
*** at Tue Apr  4 09:43:48 2017


         ------------------------------------------------------------
                                   SCF GRAD                          
                          Rob Parrish, Justin Turney,                
                       Andy Simmonett, and Alex Sokolov              
         ------------------------------------------------------------

  ==> Geometry <==

    Molecular point group: c1
    Full point group: C1

    Geometry (in Angstrom), charge = 0, multiplicity = 1:

       Center              X                  Y                   Z               Mass       
    ------------   -----------------  -----------------  -----------------  -----------------
           C         -0.719803564795     0.012272701129     0.005657951075    12.000000000000
           H         -1.074969213642     1.037986457382    -0.018178195223     1.007825032070
           H         -1.106005076750    -0.459816560454     0.902141261966     1.007825032070
           H         -1.121308704499    -0.506135260797    -0.857925906139     1.007825032070
           O          0.681589344894    -0.064300973180    -0.004043958379    15.994914619560
           H          1.055543206147     0.802339520475    -0.029224860641     1.007825032070

  Nuclear repulsion =   40.726919435145788

  ==> Basis Set <==

  Basis Set: file /usr/local/hpc5/psi4conda/envs/p4env/share/psi4/basis/6-31g_d_.gbs
    Number of shells: 20
    Number of basis function: 38
    Number of Cartesian functions: 38
    Spherical Harmonics?: false
    Max angular momentum: 2

  ==> DFJKGrad: Density-Fitted SCF Gradients <==

    Gradient:                    1
    J tasked:                  Yes
    K tasked:                  Yes
    wK tasked:                  No
    OpenMP threads:             16
    Integrals threads:          16
    Memory (MB):             78678
    Schwarz Cutoff:          0E+00
    Fitting Condition:       1E-12

   => Auxiliary Basis Set <=

  Basis Set: file /usr/local/hpc5/psi4conda/envs/p4env/share/psi4/basis/cc-pvdz-jkfit.gbs
    Number of shells: 84
    Number of basis function: 262
    Number of Cartesian functions: 262
    Spherical Harmonics?: false
    Max angular momentum: 3


  -Total Gradient:
     Atom            X                  Y                   Z
    ------   -----------------  -----------------  -----------------
       1       -0.000123308938     0.000038398340    -0.000077412955
       2        0.000016569963     0.000000709062     0.000013585435
       3        0.000087945332     0.000004132012     0.000000286253
       4        0.000011634548    -0.000003285623     0.000008785825
       5        0.000011692514    -0.000097400049     0.000054264766
       6       -0.000004533420     0.000057446259     0.000000490676


*** tstop() called on wr30 at Tue Apr  4 09:43:49 2017
Module time:
	user time   =      15.06 seconds =       0.25 minutes
	system time =       0.53 seconds =       0.01 minutes
	total time  =          1 seconds =       0.02 minutes
Total time:
	user time   =      58.82 seconds =       0.98 minutes
	system time =       1.96 seconds =       0.03 minutes
	total time  =          5 seconds =       0.08 minutes

			-----------------------------------------
			 OPTKING 2.0: for geometry optimizations 
			  - R.A. King,  Bethel University        
			-----------------------------------------

	Previous internal coordinate definitions found.
	---Fragment 1 Geometry and Gradient---
	 C          -1.3602316069        0.0231920440        0.0106919780
	 H          -2.0313974151        1.9615101341       -0.0343518106
	 H          -2.0900466966       -0.8689273706        1.7047999183
	 H          -2.1189663619       -0.9564570291       -1.6212450049
	 O           1.2880171969       -0.1215112294       -0.0076419738
	 H           1.9946875810        1.5162019593       -0.0552269829
	            -0.0001233089        0.0000383983       -0.0000774130
	             0.0000165700        0.0000007091        0.0000135854
	             0.0000879453        0.0000041320        0.0000002863
	             0.0000116345       -0.0000032856        0.0000087858
	             0.0000116925       -0.0000974000        0.0000542648
	            -0.0000045334        0.0000574463        0.0000004907

	---Fragment 1 Intrafragment Coordinates---
	 - Coordinate -           - BOHR/RAD -       - ANG/DEG -
	 R(1,2)           =         2.051724	       1.085725
	 R(1,3)           =         2.049026	       1.084298
	 R(1,4)           =         2.049051	       1.084311
	 R(1,5)           =         2.652263	       1.403517
	 R(5,6)           =         1.784307	       0.944215
	 B(1,5,6)         =         1.923628	     110.215767
	 B(2,1,3)         =         1.889104	     108.237681
	 B(2,1,4)         =         1.889208	     108.243666
	 B(2,1,5)         =         1.958452	     112.211024
	 B(3,1,4)         =         1.894877	     108.568440
	 B(3,1,5)         =         1.915161	     109.730642
	 B(4,1,5)         =         1.915732	     109.763341
	 D(2,1,5,6)       =         0.000663	       0.037969
	 D(3,1,5,6)       =        -2.100179	    -120.331394
	 D(4,1,5,6)       =         2.102027	     120.437252

	Current energy   :      -115.0331879819

	Energy change for the previous step:
		Projected    :        -0.0000000096
		Actual       :        -0.0000013125

	Performing Bofill update.
	Previous computed or guess Hessian on step 1.
	Steps to be used in Hessian update: 1
	Taking PRFO optimization step.
	Maximizing along 1 lowest eigenvalue of Hessian.

 RFO min eigenvalues
 -0.000000 -0.000000 -0.000000  0.000000  0.098264  0.102943  0.157220  0.160000
  0.160000  0.198652  0.352134  0.354848  0.355198  0.446590  0.603970

 RFO max eigenvalues
 -0.002896  0.000000
	Norm of target step-size    0.00449

	Back-transformation to cartesian coordinates...
	Successfully converged to displaced geometry.

	--- Internal Coordinate Step in ANG or DEG, aJ/ANG or AJ/DEG ---
	 ---------------------------------------------------------------------------
	   Coordinate                Previous        Force       Change         New 
	   ----------                --------       ------       ------       ------
	    1 R(1,2)          =      1.085725     0.000042     0.000008     1.085734
	    2 R(1,3)          =      1.084298     0.000271     0.000009     1.084307
	    3 R(1,4)          =      1.084311     0.000080     0.000002     1.084313
	    4 R(1,5)          =      1.403517    -0.000074     0.000010     1.403527
	    5 R(5,6)          =      0.944215    -0.000420    -0.000030     0.944185
	    6 B(1,5,6)        =    110.215767     0.000004     0.003933   110.219700
	    7 B(2,1,3)        =    108.237681    -0.000003    -0.001668   108.236013
	    8 B(2,1,4)        =    108.243666    -0.000002    -0.007438   108.236227
	    9 B(2,1,5)        =    112.211024    -0.000000    -0.003445   112.207579
	   10 B(3,1,4)        =    108.568440    -0.000003    -0.002280   108.566160
	   11 B(3,1,5)        =    109.730642     0.000010     0.019134   109.749776
	   12 B(4,1,5)        =    109.763341    -0.000001    -0.004612   109.758729
	   13 D(2,1,5,6)      =      0.037969     0.000001    -0.140034    -0.102065
	   14 D(3,1,5,6)      =   -120.331394    -0.000000    -0.148748  -120.480142
	   15 D(4,1,5,6)      =    120.437252    -0.000000    -0.154848   120.282404
	 ---------------------------------------------------------------------------
	Successfully symmetrized geometry.

  ==> Convergence Check <==

  Measures of convergence in internal coordinates in au.
  Criteria marked as inactive (o), active & met (*), and active & unmet ( ).
  ---------------------------------------------------------------------------------------------
   Step     Total Energy     Delta E     MAX Force     RMS Force      MAX Disp      RMS Disp   
  ---------------------------------------------------------------------------------------------
    Convergence Criteria             o    1.50e-05 *    1.00e-05 *    6.00e-05 *    4.00e-05 *
  ---------------------------------------------------------------------------------------------
      2    -115.03318798   -1.31e-06 o    1.26e-04      4.32e-05      2.70e-03      1.16e-03    ~
  ---------------------------------------------------------------------------------------------

	Writing optimization data to binary file.
	Structure for next step:
	Cartesian Geometry (in Angstrom)
	    C    -0.7197836255   0.0122715787   0.0059812577
	    H    -1.0748540916   1.0380348567  -0.0175261551
	    H    -1.1064757532  -0.4601994760   0.9020628634
	    H    -1.1210921655  -0.5056009181  -0.8580182207
	    O     0.6816182284  -0.0643440716  -0.0035513873
	    H     1.0556333988   0.8021839149  -0.0305220654
			--------------------------
			 OPTKING Finished Execution 
			--------------------------

    Structure for next step:
    Molecular point group: c1
    Full point group: C1

    Geometry (in Angstrom), charge = 0, multiplicity = 1:

    C           -0.719803985586     0.012292132415     0.005639785847
    H           -1.074874451596     1.038055410447    -0.017867626902
    H           -1.106496113253    -0.460178922322     0.901721391560
    H           -1.121112525556    -0.505580364378    -0.858359692562
    O            0.681597868335    -0.064323517881    -0.003892859093
    H            1.055613038760     0.802204468631    -0.030863537206

gradient() will perform analytic gradient computation.

*** tstart() called on wr30
*** at Tue Apr  4 09:43:49 2017


         ---------------------------------------------------------
                                   SCF
            by Justin Turney, Rob Parrish, and Andy Simmonett
                              RHF Reference
                       16 Threads, 110000 MiB Core
         ---------------------------------------------------------

  ==> Geometry <==

    Molecular point group: c1
    Full point group: C1

    Geometry (in Angstrom), charge = 0, multiplicity = 1:

       Center              X                  Y                   Z               Mass       
    ------------   -----------------  -----------------  -----------------  -----------------
           C         -0.719803985586     0.012292132415     0.005639785847    12.000000000000
           H         -1.074874451596     1.038055410447    -0.017867626902     1.007825032070
           H         -1.106496113253    -0.460178922322     0.901721391560     1.007825032070
           H         -1.121112525556    -0.505580364378    -0.858359692562     1.007825032070
           O          0.681597868335    -0.064323517881    -0.003892859093    15.994914619560
           H          1.055613038760     0.802204468631    -0.030863537206     1.007825032070

  Running in c1 symmetry.

  Rotational constants: A =      4.39421  B =      0.84289  C =      0.81392 [cm^-1]
  Rotational constants: A = 131734.97303  B =  25269.30740  C =  24400.73614 [MHz]
  Nuclear repulsion =   40.726670272045475

  Charge       = 0
  Multiplicity = 1
  Electrons    = 18
  Nalpha       = 9
  Nbeta        = 9

  ==> Algorithm <==

  SCF Algorithm Type is DF.
  DIIS enabled.
  MOM disabled.
  Fractional occupation disabled.
  Guess Type is READ.
  Energy threshold   = 1.00e-08
  Density threshold  = 1.00e-08
  Integral threshold = 0.00e+00

  ==> Primary Basis <==

  Basis Set: file /usr/local/hpc5/psi4conda/envs/p4env/share/psi4/basis/6-31g_d_.gbs
    Number of shells: 20
    Number of basis function: 38
    Number of Cartesian functions: 38
    Spherical Harmonics?: false
    Max angular momentum: 2

  Reading orbitals from file 180, no projection.

  ==> Pre-Iterations <==

   -------------------------------------------------------
    Irrep   Nso     Nmo     Nalpha   Nbeta   Ndocc  Nsocc
   -------------------------------------------------------
     A         38      38       0       0       0       0
   -------------------------------------------------------
    Total      38      38       9       9       9       0
   -------------------------------------------------------

  ==> Integral Setup <==

  ==> DFJK: Density-Fitted J/K Matrices <==

    J tasked:                  Yes
    K tasked:                  Yes
    wK tasked:                  No
    OpenMP threads:             16
    Integrals threads:          16
    Memory (MB):             78678
    Algorithm:                Core
    Integral Cache:           NONE
    Schwarz Cutoff:          1E-12
    Fitting Condition:       1E-12

   => Auxiliary Basis Set <=

  Basis Set: file /usr/local/hpc5/psi4conda/envs/p4env/share/psi4/basis/cc-pvdz-jkfit.gbs
    Number of shells: 84
    Number of basis function: 262
    Number of Cartesian functions: 262
    Spherical Harmonics?: false
    Max angular momentum: 3

  Minimum eigenvalue in the overlap matrix is 9.3263347966E-03.
  Using Symmetric Orthogonalization.

  SCF Guess: Orbitals guess was supplied from a previous computation.

  ==> Iterations <==

                           Total Energy        Delta E     RMS |[F,P]|

   @DF-RHF iter   0:  -115.03319244401683   -1.15033e+02   2.34796e-05 
   @DF-RHF iter   1:  -115.03318795983871    4.48418e-06   6.55353e-06 
   @DF-RHF iter   2:  -115.03318802475370   -6.49150e-08   2.73919e-06 DIIS
   @DF-RHF iter   3:  -115.03318804218590   -1.74322e-08   5.61167e-07 DIIS
   @DF-RHF iter   4:  -115.03318804295714   -7.71237e-10   2.37464e-07 DIIS
   @DF-RHF iter   5:  -115.03318804302523   -6.80984e-11   3.83407e-08 DIIS
   @DF-RHF iter   6:  -115.03318804302799   -2.75691e-12   6.67680e-09 DIIS

  ==> Post-Iterations <==

    Orbital Energies (a.u.)
    -----------------------

    Doubly Occupied:                                                      

       1A    -20.553142     2A    -11.266824     3A     -1.357920  
       4A     -0.927257     5A     -0.693460     6A     -0.619207  
       7A     -0.595918     8A     -0.496909     9A     -0.440957  

    Virtual:                                                              

      10A      0.221990    11A      0.278423    12A      0.325835  
      13A      0.332008    14A      0.395415    15A      0.763081  
      16A      0.763792    17A      0.797027    18A      1.084425  
      19A      1.135659    20A      1.135725    21A      1.183993  
      22A      1.218554    23A      1.250120    24A      1.273024  
      25A      1.447542    26A      1.726877    27A      1.761452  
      28A      1.816985    29A      2.045734    30A      2.428146  
      31A      2.459428    32A      2.511878    33A      2.609801  
      34A      2.737074    35A      2.900758    36A      3.167903  
      37A      4.139788    38A      4.645328  

    Final Occupation by Irrep:
              A 
    DOCC [     9 ]

  Energy converged.

  @DF-RHF Final Energy:  -115.03318804302799

   => Energetics <=

    Nuclear Repulsion Energy =             40.7266702720454745
    One-Electron Energy =                -237.6165297356346571
    Two-Electron Energy =                  81.8566714205611845
    DFT Exchange-Correlation Energy =       0.0000000000000000
    Empirical Dispersion Energy =           0.0000000000000000
    PCM Polarization Energy =               0.0000000000000000
    EFP Energy =                            0.0000000000000000
    Total Energy =                       -115.0331880430279909



Properties will be evaluated at   0.000000,   0.000000,   0.000000 Bohr

Properties computed using the SCF density matrix

  Nuclear Dipole Moment: (a.u.)
     X:    -2.1031      Y:     0.8195      Z:    -0.0051

  Electronic Dipole Moment: (a.u.)
     X:     1.7244      Y:    -0.1477      Z:    -0.0102

  Dipole Moment: (a.u.)
     X:    -0.3787      Y:     0.6718      Z:    -0.0152     Total:     0.7713

  Dipole Moment: (Debye)
     X:    -0.9626      Y:     1.7075      Z:    -0.0388     Total:     1.9605


*** tstop() called on wr30 at Tue Apr  4 09:43:50 2017
Module time:
	user time   =       7.10 seconds =       0.12 minutes
	system time =       0.20 seconds =       0.00 minutes
	total time  =          1 seconds =       0.02 minutes
Total time:
	user time   =      66.09 seconds =       1.10 minutes
	system time =       2.16 seconds =       0.04 minutes
	total time  =          6 seconds =       0.10 minutes

*** tstart() called on wr30
*** at Tue Apr  4 09:43:50 2017


         ------------------------------------------------------------
                                   SCF GRAD                          
                          Rob Parrish, Justin Turney,                
                       Andy Simmonett, and Alex Sokolov              
         ------------------------------------------------------------

  ==> Geometry <==

    Molecular point group: c1
    Full point group: C1

    Geometry (in Angstrom), charge = 0, multiplicity = 1:

       Center              X                  Y                   Z               Mass       
    ------------   -----------------  -----------------  -----------------  -----------------
           C         -0.719803985586     0.012292132415     0.005639785847    12.000000000000
           H         -1.074874451596     1.038055410447    -0.017867626902     1.007825032070
           H         -1.106496113253    -0.460178922322     0.901721391560     1.007825032070
           H         -1.121112525556    -0.505580364378    -0.858359692562     1.007825032070
           O          0.681597868335    -0.064323517881    -0.003892859093    15.994914619560
           H          1.055613038760     0.802204468631    -0.030863537206     1.007825032070

  Nuclear repulsion =   40.726670272045475

  ==> Basis Set <==

  Basis Set: file /usr/local/hpc5/psi4conda/envs/p4env/share/psi4/basis/6-31g_d_.gbs
    Number of shells: 20
    Number of basis function: 38
    Number of Cartesian functions: 38
    Spherical Harmonics?: false
    Max angular momentum: 2

  ==> DFJKGrad: Density-Fitted SCF Gradients <==

    Gradient:                    1
    J tasked:                  Yes
    K tasked:                  Yes
    wK tasked:                  No
    OpenMP threads:             16
    Integrals threads:          16
    Memory (MB):             78678
    Schwarz Cutoff:          0E+00
    Fitting Condition:       1E-12

   => Auxiliary Basis Set <=

  Basis Set: file /usr/local/hpc5/psi4conda/envs/p4env/share/psi4/basis/cc-pvdz-jkfit.gbs
    Number of shells: 84
    Number of basis function: 262
    Number of Cartesian functions: 262
    Spherical Harmonics?: false
    Max angular momentum: 3


  -Total Gradient:
     Atom            X                  Y                   Z
    ------   -----------------  -----------------  -----------------
       1       -0.000111275259     0.000004151066     0.000007105104
       2        0.000016031533     0.000003001253    -0.000005202266
       3        0.000025326778     0.000005746877    -0.000001432051
       4        0.000035326134     0.000005638817     0.000007424159
       5        0.000041936848    -0.000041798852    -0.000016713184
       6       -0.000007346034     0.000023260839     0.000008818239


*** tstop() called on wr30 at Tue Apr  4 09:43:51 2017
Module time:
	user time   =      15.10 seconds =       0.25 minutes
	system time =       0.55 seconds =       0.01 minutes
	total time  =          1 seconds =       0.02 minutes
Total time:
	user time   =      81.19 seconds =       1.35 minutes
	system time =       2.71 seconds =       0.05 minutes
	total time  =          7 seconds =       0.12 minutes

			-----------------------------------------
			 OPTKING 2.0: for geometry optimizations 
			  - R.A. King,  Bethel University        
			-----------------------------------------

	Previous internal coordinate definitions found.
	---Fragment 1 Geometry and Gradient---
	 C          -1.3602324021        0.0232287639        0.0106576507
	 H          -2.0312183408        1.9616404365       -0.0337649215
	 H          -2.0909746212       -0.8696121353        1.7040064782
	 H          -2.1185956374       -0.9554084268       -1.6220647424
	 O           1.2880333039       -0.1215538327       -0.0073564376
	 H           1.9948195456        1.5159467483       -0.0583236328
	            -0.0001112753        0.0000041511        0.0000071051
	             0.0000160315        0.0000030013       -0.0000052023
	             0.0000253268        0.0000057469       -0.0000014321
	             0.0000353261        0.0000056388        0.0000074242
	             0.0000419368       -0.0000417989       -0.0000167132
	            -0.0000073460        0.0000232608        0.0000088182

	---Fragment 1 Intrafragment Coordinates---
	 - Coordinate -           - BOHR/RAD -       - ANG/DEG -
	 R(1,2)           =         2.051740	       1.085734
	 R(1,3)           =         2.049044	       1.084307
	 R(1,4)           =         2.049055	       1.084313
	 R(1,5)           =         2.652282	       1.403527
	 R(5,6)           =         1.784251	       0.944185
	 B(1,5,6)         =         1.923697	     110.219700
	 B(2,1,3)         =         1.889075	     108.236013
	 B(2,1,4)         =         1.889079	     108.236227
	 B(2,1,5)         =         1.958392	     112.207579
	 B(3,1,4)         =         1.894837	     108.566160
	 B(3,1,5)         =         1.915495	     109.749776
	 B(4,1,5)         =         1.915651	     109.758729
	 D(2,1,5,6)       =        -0.001781	      -0.102065
	 D(3,1,5,6)       =        -2.102775	    -120.480142
	 D(4,1,5,6)       =         2.099324	     120.282404

	Current energy   :      -115.0331880430

	Energy change for the previous step:
		Projected    :        -0.0000000003
		Actual       :        -0.0000000611

	Performing Bofill update.
	Previous computed or guess Hessian on step 1.
	Denominators (dg)(dq) or (dq)(dq) are very small.
	 Skipping Hessian update for step 2.
	Steps to be used in Hessian update: 1
	Taking PRFO optimization step.
	Maximizing along 1 lowest eigenvalue of Hessian.

 RFO min eigenvalues
 -0.000000 -0.000000  0.000000  0.000000  0.098238  0.101235  0.150494  0.160000
  0.160256  0.200542  0.351038  0.354734  0.355069  0.441142  0.610405

 RFO max eigenvalues
 -0.003872  0.000000
	Norm of target step-size    0.00281

	Back-transformation to cartesian coordinates...
	Successfully converged to displaced geometry.

	--- Internal Coordinate Step in ANG or DEG, aJ/ANG or AJ/DEG ---
	 ---------------------------------------------------------------------------
	   Coordinate                Previous        Force       Change         New 
	   ----------                --------       ------       ------       ------
	    1 R(1,2)          =      1.085734     0.000019    -0.000005     1.085729
	    2 R(1,3)          =      1.084307     0.000105     0.000032     1.084339
	    3 R(1,4)          =      1.084313     0.000179     0.000022     1.084335
	    4 R(1,5)          =      1.403527    -0.000293    -0.000042     1.403485
	    5 R(5,6)          =      0.944185    -0.000150     0.000001     0.944186
	    6 B(1,5,6)        =    110.219700     0.000002     0.011700   110.231400
	    7 B(2,1,3)        =    108.236013    -0.000002    -0.006510   108.229503
	    8 B(2,1,4)        =    108.236227    -0.000002    -0.006190   108.230038
	    9 B(2,1,5)        =    112.207579     0.000001     0.005600   112.213179
	   10 B(3,1,4)        =    108.566160    -0.000002    -0.011230   108.554930
	   11 B(3,1,5)        =    109.749776     0.000001     0.012242   109.762018
	   12 B(4,1,5)        =    109.758729     0.000003     0.005093   109.763821
	   13 D(2,1,5,6)      =     -0.102065    -0.000000     0.093374    -0.008691
	   14 D(3,1,5,6)      =   -120.480142    -0.000000     0.089556  -120.390586
	   15 D(4,1,5,6)      =    120.282404    -0.000000     0.092708   120.375113
	 ---------------------------------------------------------------------------
	Successfully symmetrized geometry.

  ==> Convergence Check <==

  Measures of convergence in internal coordinates in au.
  Criteria marked as inactive (o), active & met (*), and active & unmet ( ).
  ---------------------------------------------------------------------------------------------
   Step     Total Energy     Delta E     MAX Force     RMS Force      MAX Disp      RMS Disp   
  ---------------------------------------------------------------------------------------------
    Convergence Criteria             o    1.50e-05 *    1.00e-05 *    6.00e-05 *    4.00e-05 *
  ---------------------------------------------------------------------------------------------
      3    -115.03318804   -6.11e-08 o    3.56e-05      2.09e-05      1.63e-03      7.26e-04    ~
  ---------------------------------------------------------------------------------------------

	Writing optimization data to binary file.
	Structure for next step:
	Cartesian Geometry (in Angstrom)
	    C    -0.7197499308   0.0123049991   0.0054561056
	    H    -1.0749236904   1.0380195561  -0.0183841056
	    H    -1.1066589839  -0.4598947679   0.9016254258
	    H    -1.1211649170  -0.5058333576  -0.8583621423
	    O     0.6816104533  -0.0643056097  -0.0040696449
	    H     1.0558109000   0.8021783869  -0.0298881770
			--------------------------
			 OPTKING Finished Execution 
			--------------------------

    Structure for next step:
    Molecular point group: c1
    Full point group: C1

    Geometry (in Angstrom), charge = 0, multiplicity = 1:

    C           -0.719774372992     0.012292202568     0.005601878341
    H           -1.074948132650     1.038006759510    -0.018238332800
    H           -1.106683426113    -0.459907564502     0.901771198529
    H           -1.121189359237    -0.505846154107    -0.858216369508
    O            0.681586011063    -0.064318406215    -0.003923872101
    H            1.055786457772     0.802165590320    -0.029742404209

gradient() will perform analytic gradient computation.

*** tstart() called on wr30
*** at Tue Apr  4 09:43:51 2017


         ---------------------------------------------------------
                                   SCF
            by Justin Turney, Rob Parrish, and Andy Simmonett
                              RHF Reference
                       16 Threads, 110000 MiB Core
         ---------------------------------------------------------

  ==> Geometry <==

    Molecular point group: c1
    Full point group: C1

    Geometry (in Angstrom), charge = 0, multiplicity = 1:

       Center              X                  Y                   Z               Mass       
    ------------   -----------------  -----------------  -----------------  -----------------
           C         -0.719774372992     0.012292202568     0.005601878341    12.000000000000
           H         -1.074948132650     1.038006759510    -0.018238332800     1.007825032070
           H         -1.106683426113    -0.459907564502     0.901771198529     1.007825032070
           H         -1.121189359237    -0.505846154107    -0.858216369508     1.007825032070
           O          0.681586011063    -0.064318406215    -0.003923872101    15.994914619560
           H          1.055786457772     0.802165590320    -0.029742404209     1.007825032070

  Running in c1 symmetry.

  Rotational constants: A =      4.39461  B =      0.84289  C =      0.81392 [cm^-1]
  Rotational constants: A = 131746.95054  B =  25269.07177  C =  24400.59089 [MHz]
  Nuclear repulsion =   40.726760373029286

  Charge       = 0
  Multiplicity = 1
  Electrons    = 18
  Nalpha       = 9
  Nbeta        = 9

  ==> Algorithm <==

  SCF Algorithm Type is DF.
  DIIS enabled.
  MOM disabled.
  Fractional occupation disabled.
  Guess Type is READ.
  Energy threshold   = 1.00e-08
  Density threshold  = 1.00e-08
  Integral threshold = 0.00e+00

  ==> Primary Basis <==

  Basis Set: file /usr/local/hpc5/psi4conda/envs/p4env/share/psi4/basis/6-31g_d_.gbs
    Number of shells: 20
    Number of basis function: 38
    Number of Cartesian functions: 38
    Spherical Harmonics?: false
    Max angular momentum: 2

  Reading orbitals from file 180, no projection.

  ==> Pre-Iterations <==

   -------------------------------------------------------
    Irrep   Nso     Nmo     Nalpha   Nbeta   Ndocc  Nsocc
   -------------------------------------------------------
     A         38      38       0       0       0       0
   -------------------------------------------------------
    Total      38      38       9       9       9       0
   -------------------------------------------------------

  ==> Integral Setup <==

  ==> DFJK: Density-Fitted J/K Matrices <==

    J tasked:                  Yes
    K tasked:                  Yes
    wK tasked:                  No
    OpenMP threads:             16
    Integrals threads:          16
    Memory (MB):             78678
    Algorithm:                Core
    Integral Cache:           NONE
    Schwarz Cutoff:          1E-12
    Fitting Condition:       1E-12

   => Auxiliary Basis Set <=

  Basis Set: file /usr/local/hpc5/psi4conda/envs/p4env/share/psi4/basis/cc-pvdz-jkfit.gbs
    Number of shells: 84
    Number of basis function: 262
    Number of Cartesian functions: 262
    Spherical Harmonics?: false
    Max angular momentum: 3

  Minimum eigenvalue in the overlap matrix is 9.3271757370E-03.
  Using Symmetric Orthogonalization.

  SCF Guess: Orbitals guess was supplied from a previous computation.

  ==> Iterations <==

                           Total Energy        Delta E     RMS |[F,P]|

   @DF-RHF iter   0:  -115.03318498687889   -1.15033e+02   1.49515e-05 
   @DF-RHF iter   1:  -115.03318800852836   -3.02165e-06   4.24907e-06 
   @DF-RHF iter   2:  -115.03318803558898   -2.70606e-08   1.79572e-06 DIIS
   @DF-RHF iter   3:  -115.03318804277291   -7.18393e-09   6.09204e-07 DIIS
   @DF-RHF iter   4:  -115.03318804329301   -5.20103e-10   1.94804e-07 DIIS
   @DF-RHF iter   5:  -115.03318804337961   -8.66009e-11   3.05241e-08 DIIS
   @DF-RHF iter   6:  -115.03318804338163   -2.01794e-12   7.52235e-09 DIIS

  ==> Post-Iterations <==

    Orbital Energies (a.u.)
    -----------------------

    Doubly Occupied:                                                      

       1A    -20.553150     2A    -11.266828     3A     -1.357931  
       4A     -0.927261     5A     -0.693476     6A     -0.619189  
       7A     -0.595943     8A     -0.496894     9A     -0.440951  

    Virtual:                                                              

      10A      0.221996    11A      0.278407    12A      0.325848  
      13A      0.332012    14A      0.395427    15A      0.763085  
      16A      0.763801    17A      0.797045    18A      1.084399  
      19A      1.135647    20A      1.135713    21A      1.184024  
      22A      1.218559    23A      1.250126    24A      1.273017  
      25A      1.447570    26A      1.726841    27A      1.761464  
      28A      1.817023    29A      2.045727    30A      2.428162  
      31A      2.459367    32A      2.511769    33A      2.609710  
      34A      2.737181    35A      2.900886    36A      3.167896  
      37A      4.139807    38A      4.645319  

    Final Occupation by Irrep:
              A 
    DOCC [     9 ]

  Energy converged.

  @DF-RHF Final Energy:  -115.03318804338163

   => Energetics <=

    Nuclear Repulsion Energy =             40.7267603730292862
    One-Electron Energy =                -237.6166509160761109
    Two-Electron Energy =                  81.8567024996651895
    DFT Exchange-Correlation Energy =       0.0000000000000000
    Empirical Dispersion Energy =           0.0000000000000000
    PCM Polarization Energy =               0.0000000000000000
    EFP Energy =                            0.0000000000000000
    Total Energy =                       -115.0331880433816281

    Alert: EFP and PCM quantities not currently incorporated into SCF psivars.

Properties will be evaluated at   0.000000,   0.000000,   0.000000 Bohr

Properties computed using the SCF density matrix

  Nuclear Dipole Moment: (a.u.)
     X:    -2.1033      Y:     0.8194      Z:    -0.0042

  Electronic Dipole Moment: (a.u.)
     X:     1.7247      Y:    -0.1476      Z:    -0.0103

  Dipole Moment: (a.u.)
     X:    -0.3785      Y:     0.6718      Z:    -0.0145     Total:     0.7712

  Dipole Moment: (Debye)
     X:    -0.9621      Y:     1.7075      Z:    -0.0369     Total:     1.9603


*** tstop() called on wr30 at Tue Apr  4 09:43:52 2017
Module time:
	user time   =       6.99 seconds =       0.12 minutes
	system time =       0.21 seconds =       0.00 minutes
	total time  =          1 seconds =       0.02 minutes
Total time:
	user time   =      88.44 seconds =       1.47 minutes
	system time =       2.92 seconds =       0.05 minutes
	total time  =          8 seconds =       0.13 minutes

*** tstart() called on wr30
*** at Tue Apr  4 09:43:52 2017


         ------------------------------------------------------------
                                   SCF GRAD                          
                          Rob Parrish, Justin Turney,                
                       Andy Simmonett, and Alex Sokolov              
         ------------------------------------------------------------

  ==> Geometry <==

    Molecular point group: c1
    Full point group: C1

    Geometry (in Angstrom), charge = 0, multiplicity = 1:

       Center              X                  Y                   Z               Mass       
    ------------   -----------------  -----------------  -----------------  -----------------
           C         -0.719774372992     0.012292202568     0.005601878341    12.000000000000
           H         -1.074948132650     1.038006759510    -0.018238332800     1.007825032070
           H         -1.106683426113    -0.459907564502     0.901771198529     1.007825032070
           H         -1.121189359237    -0.505846154107    -0.858216369508     1.007825032070
           O          0.681586011063    -0.064318406215    -0.003923872101    15.994914619560
           H          1.055786457772     0.802165590320    -0.029742404209     1.007825032070

  Nuclear repulsion =   40.726760373029286

  ==> Basis Set <==

  Basis Set: file /usr/local/hpc5/psi4conda/envs/p4env/share/psi4/basis/6-31g_d_.gbs
    Number of shells: 20
    Number of basis function: 38
    Number of Cartesian functions: 38
    Spherical Harmonics?: false
    Max angular momentum: 2

  ==> DFJKGrad: Density-Fitted SCF Gradients <==

    Gradient:                    1
    J tasked:                  Yes
    K tasked:                  Yes
    wK tasked:                  No
    OpenMP threads:             16
    Integrals threads:          16
    Memory (MB):             78678
    Schwarz Cutoff:          0E+00
    Fitting Condition:       1E-12

   => Auxiliary Basis Set <=

  Basis Set: file /usr/local/hpc5/psi4conda/envs/p4env/share/psi4/basis/cc-pvdz-jkfit.gbs
    Number of shells: 84
    Number of basis function: 262
    Number of Cartesian functions: 262
    Spherical Harmonics?: false
    Max angular momentum: 3


  -Total Gradient:
     Atom            X                  Y                   Z
    ------   -----------------  -----------------  -----------------
       1       -0.000044054633     0.000005404268    -0.000004264724
       2        0.000003088014    -0.000008476259     0.000000464078
       3       -0.000000268413    -0.000000659125    -0.000001532342
       4       -0.000000292402     0.000000285696     0.000004942874
       5        0.000025513628    -0.000013016972     0.000000015476
       6        0.000016013806     0.000016462392     0.000000374637


*** tstop() called on wr30 at Tue Apr  4 09:43:53 2017
Module time:
	user time   =      15.09 seconds =       0.25 minutes
	system time =       0.52 seconds =       0.01 minutes
	total time  =          1 seconds =       0.02 minutes
Total time:
	user time   =     103.54 seconds =       1.73 minutes
	system time =       3.44 seconds =       0.06 minutes
	total time  =          9 seconds =       0.15 minutes

			-----------------------------------------
			 OPTKING 2.0: for geometry optimizations 
			  - R.A. King,  Bethel University        
			-----------------------------------------

	Previous internal coordinate definitions found.
	---Fragment 1 Geometry and Gradient---
	 C          -1.3601764424        0.0232288964        0.0105860159
	 H          -2.0313575778        1.9615484996       -0.0344654541
	 H          -2.0913285912       -0.8690993434        1.7041005997
	 H          -2.1187408321       -0.9559106966       -1.6217939011
	 O           1.2880108969       -0.1215441730       -0.0074150437
	 H           1.9951472600        1.5158732789       -0.0562049985
	            -0.0000440546        0.0000054043       -0.0000042647
	             0.0000030880       -0.0000084763        0.0000004641
	            -0.0000002684       -0.0000006591       -0.0000015323
	            -0.0000002924        0.0000002857        0.0000049429
	             0.0000255136       -0.0000130170        0.0000000155
	             0.0000160138        0.0000164624        0.0000003746

	---Fragment 1 Intrafragment Coordinates---
	 - Coordinate -           - BOHR/RAD -       - ANG/DEG -
	 R(1,2)           =         2.051730	       1.085729
	 R(1,3)           =         2.049103	       1.084339
	 R(1,4)           =         2.049097	       1.084335
	 R(1,5)           =         2.652203	       1.403485
	 R(5,6)           =         1.784253	       0.944186
	 B(1,5,6)         =         1.923901	     110.231400
	 B(2,1,3)         =         1.888961	     108.229503
	 B(2,1,4)         =         1.888971	     108.230038
	 B(2,1,5)         =         1.958489	     112.213179
	 B(3,1,4)         =         1.894641	     108.554930
	 B(3,1,5)         =         1.915709	     109.762018
	 B(4,1,5)         =         1.915740	     109.763821
	 D(2,1,5,6)       =        -0.000152	      -0.008691
	 D(3,1,5,6)       =        -2.101212	    -120.390586
	 D(4,1,5,6)       =         2.100942	     120.375113

	Current energy   :      -115.0331880434

	Energy change for the previous step:
		Projected    :        -0.0000000000
		Actual       :        -0.0000000004

	Performing Bofill update.
	Previous computed or guess Hessian on step 1.
	Denominators (dg)(dq) or (dq)(dq) are very small.
	 Skipping Hessian update for step 3.
	Steps to be used in Hessian update: 2 1
	Taking PRFO optimization step.
	Maximizing along 1 lowest eigenvalue of Hessian.

 RFO min eigenvalues
 -0.000000 -0.000000 -0.000000  0.000000  0.098557  0.101817  0.151852  0.160026
  0.161513  0.199811  0.350218  0.354690  0.355227  0.425390  0.622426

 RFO max eigenvalues
 -0.005141  0.000000
	Norm of target step-size    0.00081

	Back-transformation to cartesian coordinates...
	Successfully converged to displaced geometry.

	--- Internal Coordinate Step in ANG or DEG, aJ/ANG or AJ/DEG ---
	 ---------------------------------------------------------------------------
	   Coordinate                Previous        Force       Change         New 
	   ----------                --------       ------       ------       ------
	    1 R(1,2)          =      1.085729     0.000074     0.000006     1.085735
	    2 R(1,3)          =      1.084339     0.000007     0.000003     1.084342
	    3 R(1,4)          =      1.084335     0.000033    -0.000001     1.084334
	    4 R(1,5)          =      1.403485    -0.000340    -0.000026     1.403459
	    5 R(5,6)          =      0.944186    -0.000177    -0.000007     0.944179
	    6 B(1,5,6)        =    110.231400    -0.000001    -0.003273   110.228127
	    7 B(2,1,3)        =    108.229503    -0.000000     0.000961   108.230464
	    8 B(2,1,4)        =    108.230038    -0.000000    -0.000271   108.229766
	    9 B(2,1,5)        =    112.213179     0.000000    -0.000242   112.212937
	   10 B(3,1,4)        =    108.554930     0.000000     0.001180   108.556111
	   11 B(3,1,5)        =    109.762018     0.000000     0.002299   109.764317
	   12 B(4,1,5)        =    109.763821    -0.000000    -0.003842   109.759979
	   13 D(2,1,5,6)      =     -0.008691     0.000000     0.028542     0.019851
	   14 D(3,1,5,6)      =   -120.390586     0.000000     0.025914  -120.364671
	   15 D(4,1,5,6)      =    120.375113    -0.000000     0.025412   120.400525
	 ---------------------------------------------------------------------------
	Successfully symmetrized geometry.

  ==> Convergence Check <==

  Measures of convergence in internal coordinates in au.
  Criteria marked as inactive (o), active & met (*), and active & unmet ( ).
  ---------------------------------------------------------------------------------------------
   Step     Total Energy     Delta E     MAX Force     RMS Force      MAX Disp      RMS Disp   
  ---------------------------------------------------------------------------------------------
    Convergence Criteria             o    1.50e-05 *    1.00e-05 *    6.00e-05 *    4.00e-05 *
  ---------------------------------------------------------------------------------------------
      4    -115.03318804   -3.54e-10 o    4.13e-05      1.29e-05      4.98e-04      2.10e-04    ~
  ---------------------------------------------------------------------------------------------

	Writing optimization data to binary file.
	Structure for next step:
	Cartesian Geometry (in Angstrom)
	    C    -0.7197632661   0.0122916121   0.0055892506
	    H    -1.0749231365   1.0380166711  -0.0182919067
	    H    -1.1066238451  -0.4598658481   0.9018056963
	    H    -1.1212106521  -0.5058773391  -0.8581938422
	    O     0.6815686091  -0.0643377762  -0.0040853911
	    H     1.0557294686   0.8021651078  -0.0295717086
			--------------------------
			 OPTKING Finished Execution 
			--------------------------

    Structure for next step:
    Molecular point group: c1
    Full point group: C1

    Geometry (in Angstrom), charge = 0, multiplicity = 1:

    C           -0.719758934747     0.012300879185     0.005669169682
    H           -1.074918805148     1.038025938144    -0.018211987583
    H           -1.106619513829    -0.459856581011     0.901885615422
    H           -1.121206320806    -0.505868072047    -0.858113923132
    O            0.681572940403    -0.064328509079    -0.004005472007
    H            1.055733799882     0.802174374934    -0.029491789443

gradient() will perform analytic gradient computation.

*** tstart() called on wr30
*** at Tue Apr  4 09:43:53 2017


         ---------------------------------------------------------
                                   SCF
            by Justin Turney, Rob Parrish, and Andy Simmonett
                              RHF Reference
                       16 Threads, 110000 MiB Core
         ---------------------------------------------------------

  ==> Geometry <==

    Molecular point group: c1
    Full point group: C1

    Geometry (in Angstrom), charge = 0, multiplicity = 1:

       Center              X                  Y                   Z               Mass       
    ------------   -----------------  -----------------  -----------------  -----------------
           C         -0.719758934747     0.012300879185     0.005669169682    12.000000000000
           H         -1.074918805148     1.038025938144    -0.018211987583     1.007825032070
           H         -1.106619513829    -0.459856581011     0.901885615422     1.007825032070
           H         -1.121206320806    -0.505868072047    -0.858113923132     1.007825032070
           O          0.681572940403    -0.064328509079    -0.004005472007    15.994914619560
           H          1.055733799882     0.802174374934    -0.029491789443     1.007825032070

  Running in c1 symmetry.

  Rotational constants: A =      4.39453  B =      0.84292  C =      0.81395 [cm^-1]
  Rotational constants: A = 131744.75263  B =  25270.06063  C =  24401.49835 [MHz]
  Nuclear repulsion =   40.727267454212182

  Charge       = 0
  Multiplicity = 1
  Electrons    = 18
  Nalpha       = 9
  Nbeta        = 9

  ==> Algorithm <==

  SCF Algorithm Type is DF.
  DIIS enabled.
  MOM disabled.
  Fractional occupation disabled.
  Guess Type is READ.
  Energy threshold   = 1.00e-08
  Density threshold  = 1.00e-08
  Integral threshold = 0.00e+00

  ==> Primary Basis <==

  Basis Set: file /usr/local/hpc5/psi4conda/envs/p4env/share/psi4/basis/6-31g_d_.gbs
    Number of shells: 20
    Number of basis function: 38
    Number of Cartesian functions: 38
    Spherical Harmonics?: false
    Max angular momentum: 2

  Reading orbitals from file 180, no projection.

  ==> Pre-Iterations <==

   -------------------------------------------------------
    Irrep   Nso     Nmo     Nalpha   Nbeta   Ndocc  Nsocc
   -------------------------------------------------------
     A         38      38       0       0       0       0
   -------------------------------------------------------
    Total      38      38       9       9       9       0
   -------------------------------------------------------

  ==> Integral Setup <==

  ==> DFJK: Density-Fitted J/K Matrices <==

    J tasked:                  Yes
    K tasked:                  Yes
    wK tasked:                  No
    OpenMP threads:             16
    Integrals threads:          16
    Memory (MB):             78678
    Algorithm:                Core
    Integral Cache:           NONE
    Schwarz Cutoff:          1E-12
    Fitting Condition:       1E-12

   => Auxiliary Basis Set <=

  Basis Set: file /usr/local/hpc5/psi4conda/envs/p4env/share/psi4/basis/cc-pvdz-jkfit.gbs
    Number of shells: 84
    Number of basis function: 262
    Number of Cartesian functions: 262
    Spherical Harmonics?: false
    Max angular momentum: 3

  Minimum eigenvalue in the overlap matrix is 9.3266351581E-03.
  Using Symmetric Orthogonalization.

  SCF Guess: Orbitals guess was supplied from a previous computation.

  ==> Iterations <==

                           Total Energy        Delta E     RMS |[F,P]|

   @DF-RHF iter   0:  -115.03320036926284   -1.15033e+02   6.36310e-06 
   @DF-RHF iter   1:  -115.03318804262716    1.23266e-05   1.30920e-06 
   @DF-RHF iter   2:  -115.03318804509898   -2.47182e-09   5.27228e-07 DIIS
   @DF-RHF iter   3:  -115.03318804571200   -6.13014e-10   1.46316e-07 DIIS
   @DF-RHF iter   4:  -115.03318804574761   -3.56124e-11   5.88045e-08 DIIS
   @DF-RHF iter   5:  -115.03318804575444   -6.83542e-12   1.09736e-08 DIIS
   @DF-RHF iter   6:  -115.03318804575476   -3.12639e-13   2.22268e-09 DIIS

  ==> Post-Iterations <==

    Orbital Energies (a.u.)
    -----------------------

    Doubly Occupied:                                                      

       1A    -20.553150     2A    -11.266826     3A     -1.357946  
       4A     -0.927258     5A     -0.693483     6A     -0.619196  
       7A     -0.595945     8A     -0.496895     9A     -0.440949  

    Virtual:                                                              

      10A      0.221995    11A      0.278411    12A      0.325848  
      13A      0.332012    14A      0.395435    15A      0.763089  
      16A      0.763802    17A      0.797057    18A      1.084399  
      19A      1.135648    20A      1.135711    21A      1.184019  
      22A      1.218556    23A      1.250124    24A      1.273019  
      25A      1.447566    26A      1.726854    27A      1.761464  
      28A      1.817007    29A      2.045718    30A      2.428207  
      31A      2.459368    32A      2.511788    33A      2.609764  
      34A      2.737194    35A      2.900872    36A      3.167916  
      37A      4.139818    38A      4.645314  

    Final Occupation by Irrep:
              A 
    DOCC [     9 ]

  Energy converged.

  @DF-RHF Final Energy:  -115.03318804575476

   => Energetics <=

    Nuclear Repulsion Energy =             40.7272674542121820
    One-Electron Energy =                -237.6176117803800025
    Two-Electron Energy =                  81.8571562804130650
    DFT Exchange-Correlation Energy =       0.0000000000000000
    Empirical Dispersion Energy =           0.0000000000000000
    PCM Polarization Energy =               0.0000000000000000
    EFP Energy =                            0.0000000000000000
    Total Energy =                       -115.0331880457547555



Properties will be evaluated at   0.000000,   0.000000,   0.000000 Bohr

Properties computed using the SCF density matrix

  Nuclear Dipole Moment: (a.u.)
     X:    -2.1032      Y:     0.8195      Z:    -0.0037

  Electronic Dipole Moment: (a.u.)
     X:     1.7247      Y:    -0.1477      Z:    -0.0105

  Dipole Moment: (a.u.)
     X:    -0.3785      Y:     0.6718      Z:    -0.0142     Total:     0.7712

  Dipole Moment: (Debye)
     X:    -0.9620      Y:     1.7076      Z:    -0.0361     Total:     1.9603


*** tstop() called on wr30 at Tue Apr  4 09:43:53 2017
Module time:
	user time   =       7.06 seconds =       0.12 minutes
	system time =       0.20 seconds =       0.00 minutes
	total time  =          0 seconds =       0.00 minutes
Total time:
	user time   =     110.75 seconds =       1.85 minutes
	system time =       3.65 seconds =       0.06 minutes
	total time  =          9 seconds =       0.15 minutes

*** tstart() called on wr30
*** at Tue Apr  4 09:43:53 2017


         ------------------------------------------------------------
                                   SCF GRAD                          
                          Rob Parrish, Justin Turney,                
                       Andy Simmonett, and Alex Sokolov              
         ------------------------------------------------------------

  ==> Geometry <==

    Molecular point group: c1
    Full point group: C1

    Geometry (in Angstrom), charge = 0, multiplicity = 1:

       Center              X                  Y                   Z               Mass       
    ------------   -----------------  -----------------  -----------------  -----------------
           C         -0.719758934747     0.012300879185     0.005669169682    12.000000000000
           H         -1.074918805148     1.038025938144    -0.018211987583     1.007825032070
           H         -1.106619513829    -0.459856581011     0.901885615422     1.007825032070
           H         -1.121206320806    -0.505868072047    -0.858113923132     1.007825032070
           O          0.681572940403    -0.064328509079    -0.004005472007    15.994914619560
           H          1.055733799882     0.802174374934    -0.029491789443     1.007825032070

  Nuclear repulsion =   40.727267454212168

  ==> Basis Set <==

  Basis Set: file /usr/local/hpc5/psi4conda/envs/p4env/share/psi4/basis/6-31g_d_.gbs
    Number of shells: 20
    Number of basis function: 38
    Number of Cartesian functions: 38
    Spherical Harmonics?: false
    Max angular momentum: 2

  ==> DFJKGrad: Density-Fitted SCF Gradients <==

    Gradient:                    1
    J tasked:                  Yes
    K tasked:                  Yes
    wK tasked:                  No
    OpenMP threads:             16
    Integrals threads:          16
    Memory (MB):             78678
    Schwarz Cutoff:          0E+00
    Fitting Condition:       1E-12

   => Auxiliary Basis Set <=

  Basis Set: file /usr/local/hpc5/psi4conda/envs/p4env/share/psi4/basis/cc-pvdz-jkfit.gbs
    Number of shells: 84
    Number of basis function: 262
    Number of Cartesian functions: 262
    Spherical Harmonics?: false
    Max angular momentum: 3


  -Total Gradient:
     Atom            X                  Y                   Z
    ------   -----------------  -----------------  -----------------
       1       -0.000026907448     0.000007340906     0.000001484795
       2        0.000003818394    -0.000004027958    -0.000000167857
       3        0.000001759448    -0.000001868774    -0.000000820194
       4        0.000006471380     0.000001028051     0.000001705876
       5        0.000010196198    -0.000014113558     0.000000378955
       6        0.000004662026     0.000011641333    -0.000002581576


*** tstop() called on wr30 at Tue Apr  4 09:43:55 2017
Module time:
	user time   =      15.12 seconds =       0.25 minutes
	system time =       0.55 seconds =       0.01 minutes
	total time  =          2 seconds =       0.03 minutes
Total time:
	user time   =     125.87 seconds =       2.10 minutes
	system time =       4.20 seconds =       0.07 minutes
	total time  =         11 seconds =       0.18 minutes

			-----------------------------------------
			 OPTKING 2.0: for geometry optimizations 
			  - R.A. King,  Bethel University        
			-----------------------------------------

	Previous internal coordinate definitions found.
	---Fragment 1 Geometry and Gradient---
	 C          -1.3601472684        0.0232452929        0.0107131781
	 H          -2.0313021568        1.9615847419       -0.0344156689
	 H          -2.0912078144       -0.8690029985        1.7043168163
	 H          -2.1187728848       -0.9559521155       -1.6216003055
	 O           1.2879861969       -0.1215632647       -0.0075692451
	 H           1.9950477510        1.5158898794       -0.0557314052
	            -0.0000269074        0.0000073409        0.0000014848
	             0.0000038184       -0.0000040280       -0.0000001679
	             0.0000017594       -0.0000018688       -0.0000008202
	             0.0000064714        0.0000010281        0.0000017059
	             0.0000101962       -0.0000141136        0.0000003790
	             0.0000046620        0.0000116413       -0.0000025816

	---Fragment 1 Intrafragment Coordinates---
	 - Coordinate -           - BOHR/RAD -       - ANG/DEG -
	 R(1,2)           =         2.051742	       1.085735
	 R(1,3)           =         2.049110	       1.084342
	 R(1,4)           =         2.049094	       1.084334
	 R(1,5)           =         2.652153	       1.403459
	 R(5,6)           =         1.784239	       0.944179
	 B(1,5,6)         =         1.923844	     110.228127
	 B(2,1,3)         =         1.888978	     108.230464
	 B(2,1,4)         =         1.888966	     108.229766
	 B(2,1,5)         =         1.958485	     112.212937
	 B(3,1,4)         =         1.894662	     108.556111
	 B(3,1,5)         =         1.915749	     109.764317
	 B(4,1,5)         =         1.915673	     109.759979
	 D(2,1,5,6)       =         0.000346	       0.019851
	 D(3,1,5,6)       =        -2.100760	    -120.364671
	 D(4,1,5,6)       =         2.101386	     120.400525

	Current energy   :      -115.0331880458

	Energy change for the previous step:
		Projected    :        -0.0000000000
		Actual       :        -0.0000000024

	Performing Bofill update.
[...]
    H           -1.074916777877     1.038032036332    -0.018183723069
    H           -1.106621706473    -0.459864178762     0.901864569381
    H           -1.121239107053    -0.505833948326    -0.858132438726
    O            0.681563884978    -0.064329684129    -0.003984221719
    H            1.055732526594     0.802152239195    -0.029693912495

gradient() will perform analytic gradient computation.

*** tstart() called on wr30
*** at Tue Apr  4 09:44:09 2017


         ---------------------------------------------------------
                                   SCF
            by Justin Turney, Rob Parrish, and Andy Simmonett
                              RHF Reference
                       16 Threads, 110000 MiB Core
         ---------------------------------------------------------

  ==> Geometry <==

    Molecular point group: c1
    Full point group: C1

    Geometry (in Angstrom), charge = 0, multiplicity = 1:

       Center              X                  Y                   Z               Mass       
    ------------   -----------------  -----------------  -----------------  -----------------
           C         -0.719743990292     0.012301564546     0.005658769153    12.000000000000
           H         -1.074916777877     1.038032036332    -0.018183723069     1.007825032070
           H         -1.106621706473    -0.459864178762     0.901864569381     1.007825032070
           H         -1.121239107053    -0.505833948326    -0.858132438726     1.007825032070
           O          0.681563884978    -0.064329684129    -0.003984221719    15.994914619560
           H          1.055732526594     0.802152239195    -0.029693912495     1.007825032070

  Running in c1 symmetry.

  Rotational constants: A =      4.39458  B =      0.84294  C =      0.81396 [cm^-1]
  Rotational constants: A = 131746.29915  B =  25270.55615  C =  24401.99936 [MHz]
  Nuclear repulsion =   40.727598062490507

  Charge       = 0
  Multiplicity = 1
  Electrons    = 18
  Nalpha       = 9
  Nbeta        = 9

  ==> Algorithm <==

  SCF Algorithm Type is DF.
  DIIS enabled.
  MOM disabled.
  Fractional occupation disabled.
  Guess Type is READ.
  Energy threshold   = 1.00e-08
  Density threshold  = 1.00e-08
  Integral threshold = 0.00e+00

  ==> Primary Basis <==

  Basis Set: file /usr/local/hpc5/psi4conda/envs/p4env/share/psi4/basis/6-31g_d_.gbs
    Number of shells: 20
    Number of basis function: 38
    Number of Cartesian functions: 38
    Spherical Harmonics?: false
    Max angular momentum: 2

  Reading orbitals from file 180, no projection.

  ==> Pre-Iterations <==

   -------------------------------------------------------
    Irrep   Nso     Nmo     Nalpha   Nbeta   Ndocc  Nsocc
   -------------------------------------------------------
     A         38      38       0       0       0       0
   -------------------------------------------------------
    Total      38      38       9       9       9       0
   -------------------------------------------------------

  ==> Integral Setup <==

  ==> DFJK: Density-Fitted J/K Matrices <==

    J tasked:                  Yes
    K tasked:                  Yes
    wK tasked:                  No
    OpenMP threads:             16
    Integrals threads:          16
    Memory (MB):             78678
    Algorithm:                Core
    Integral Cache:           NONE
    Schwarz Cutoff:          1E-12
    Fitting Condition:       1E-12

   => Auxiliary Basis Set <=

  Basis Set: file /usr/local/hpc5/psi4conda/envs/p4env/share/psi4/basis/cc-pvdz-jkfit.gbs
    Number of shells: 84
    Number of basis function: 262
    Number of Cartesian functions: 262
    Spherical Harmonics?: false
    Max angular momentum: 3

  Minimum eigenvalue in the overlap matrix is 9.3265209562E-03.
  Using Symmetric Orthogonalization.

  SCF Guess: Orbitals guess was supplied from a previous computation.

  ==> Iterations <==

                           Total Energy        Delta E     RMS |[F,P]|

   @DF-RHF iter   0:  -115.03318796314336   -1.15033e+02   7.37953e-07 
   @DF-RHF iter   1:  -115.03318804615046   -8.30071e-08   1.64842e-07 
   @DF-RHF iter   2:  -115.03318804619036   -3.99041e-11   6.69802e-08 DIIS
   @DF-RHF iter   3:  -115.03318804620079   -1.04308e-11   1.34236e-08 DIIS
   @DF-RHF iter   4:  -115.03318804620120   -4.12115e-13   4.41518e-09 DIIS

  ==> Post-Iterations <==

    Orbital Energies (a.u.)
    -----------------------

    Doubly Occupied:                                                      

       1A    -20.553151     2A    -11.266827     3A     -1.357958  
       4A     -0.927258     5A     -0.693491     6A     -0.619197  
       7A     -0.595952     8A     -0.496892     9A     -0.440949  

    Virtual:                                                              

      10A      0.221996    11A      0.278410    12A      0.325849  
      13A      0.332014    14A      0.395441    15A      0.763092  
      16A      0.763806    17A      0.797068    18A      1.084394  
      19A      1.135642    20A      1.135712    21A      1.184026  
      22A      1.218555    23A      1.250125    24A      1.273016  
      25A      1.447568    26A      1.726854    27A      1.761468  
      28A      1.817005    29A      2.045711    30A      2.428235  
      31A      2.459357    32A      2.511770    33A      2.609774  
      34A      2.737227    35A      2.900896    36A      3.167927  
      37A      4.139830    38A      4.645309  

    Final Occupation by Irrep:
              A 
    DOCC [     9 ]

  Energy converged.

  @DF-RHF Final Energy:  -115.03318804620120

   => Energetics <=

    Nuclear Repulsion Energy =             40.7275980624905074
    One-Electron Energy =                -237.6182215611796096
    Two-Electron Energy =                  81.8574354524879055
    DFT Exchange-Correlation Energy =       0.0000000000000000
    Empirical Dispersion Energy =           0.0000000000000000
    PCM Polarization Energy =               0.0000000000000000
    EFP Energy =                            0.0000000000000000
    Total Energy =                       -115.0331880462012037

    Alert: EFP and PCM quantities not currently incorporated into SCF psivars.

Properties will be evaluated at   0.000000,   0.000000,   0.000000 Bohr

Properties computed using the SCF density matrix

  Nuclear Dipole Moment: (a.u.)
     X:    -2.1033      Y:     0.8195      Z:    -0.0039

  Electronic Dipole Moment: (a.u.)
     X:     1.7248      Y:    -0.1477      Z:    -0.0105

  Dipole Moment: (a.u.)
     X:    -0.3784      Y:     0.6718      Z:    -0.0144     Total:     0.7712

  Dipole Moment: (Debye)
     X:    -0.9619      Y:     1.7076      Z:    -0.0366     Total:     1.9602


*** tstop() called on wr30 at Tue Apr  4 09:44:10 2017
Module time:
	user time   =       6.96 seconds =       0.12 minutes
	system time =       0.23 seconds =       0.00 minutes
	total time  =          1 seconds =       0.02 minutes
Total time:
	user time   =     311.50 seconds =       5.19 minutes
	system time =      10.50 seconds =       0.17 minutes
	total time  =         26 seconds =       0.43 minutes

*** tstart() called on wr30
*** at Tue Apr  4 09:44:10 2017


         ------------------------------------------------------------
                                   SCF GRAD                          
                          Rob Parrish, Justin Turney,                
                       Andy Simmonett, and Alex Sokolov              
         ------------------------------------------------------------

  ==> Geometry <==

    Molecular point group: c1
    Full point group: C1

    Geometry (in Angstrom), charge = 0, multiplicity = 1:

       Center              X                  Y                   Z               Mass       
    ------------   -----------------  -----------------  -----------------  -----------------
           C         -0.719743990292     0.012301564546     0.005658769153    12.000000000000
           H         -1.074916777877     1.038032036332    -0.018183723069     1.007825032070
           H         -1.106621706473    -0.459864178762     0.901864569381     1.007825032070
           H         -1.121239107053    -0.505833948326    -0.858132438726     1.007825032070
           O          0.681563884978    -0.064329684129    -0.003984221719    15.994914619560
           H          1.055732526594     0.802152239195    -0.029693912495     1.007825032070

  Nuclear repulsion =   40.727598062490507

  ==> Basis Set <==

  Basis Set: file /usr/local/hpc5/psi4conda/envs/p4env/share/psi4/basis/6-31g_d_.gbs
    Number of shells: 20
    Number of basis function: 38
    Number of Cartesian functions: 38
    Spherical Harmonics?: false
    Max angular momentum: 2

  ==> DFJKGrad: Density-Fitted SCF Gradients <==

    Gradient:                    1
    J tasked:                  Yes
    K tasked:                  Yes
    wK tasked:                  No
    OpenMP threads:             16
    Integrals threads:          16
    Memory (MB):             78678
    Schwarz Cutoff:          0E+00
    Fitting Condition:       1E-12

   => Auxiliary Basis Set <=

  Basis Set: file /usr/local/hpc5/psi4conda/envs/p4env/share/psi4/basis/cc-pvdz-jkfit.gbs
    Number of shells: 84
    Number of basis function: 262
    Number of Cartesian functions: 262
    Spherical Harmonics?: false
    Max angular momentum: 3


  -Total Gradient:
     Atom            X                  Y                   Z
    ------   -----------------  -----------------  -----------------
       1       -0.000002270800     0.000000561427     0.000000103947
       2        0.000000254406    -0.000000450150    -0.000000012511
       3       -0.000000004424    -0.000000177742    -0.000000115541
       4        0.000000383080     0.000000121012     0.000000188027
       5        0.000000969808    -0.000001163403     0.000000101892
       6        0.000000667928     0.000001108856    -0.000000265814


*** tstop() called on wr30 at Tue Apr  4 09:44:11 2017
Module time:
	user time   =      15.07 seconds =       0.25 minutes
	system time =       0.58 seconds =       0.01 minutes
	total time  =          1 seconds =       0.02 minutes
Total time:
	user time   =     326.58 seconds =       5.44 minutes
	system time =      11.08 seconds =       0.18 minutes
	total time  =         27 seconds =       0.45 minutes

			-----------------------------------------
			 OPTKING 2.0: for geometry optimizations 
			  - R.A. King,  Bethel University        
			-----------------------------------------

	Previous internal coordinate definitions found.
	---Fragment 1 Geometry and Gradient---
	 C          -1.3601190274        0.0232465880        0.0106935239
	 H          -2.0312983258        1.9615962658       -0.0343622567
	 H          -2.0912119579       -0.8690173562        1.7042770451
	 H          -2.1188348418       -0.9558876311       -1.6216352949
	 O           1.2879690847       -0.1215654852       -0.0075290879
	 H           1.9950453448        1.5158480490       -0.0561133624
	            -0.0000022708        0.0000005614        0.0000001039
	             0.0000002544       -0.0000004501       -0.0000000125
	            -0.0000000044       -0.0000001777       -0.0000001155
	             0.0000003831        0.0000001210        0.0000001880
	             0.0000009698       -0.0000011634        0.0000001019
	             0.0000006679        0.0000011089       -0.0000002658

	---Fragment 1 Intrafragment Coordinates---
	 - Coordinate -           - BOHR/RAD -       - ANG/DEG -
	 R(1,2)           =         2.051758	       1.085744
	 R(1,3)           =         2.049111	       1.084343
	 R(1,4)           =         2.049110	       1.084342
	 R(1,5)           =         2.652107	       1.403435
	 R(5,6)           =         1.784220	       0.944168
	 B(1,5,6)         =         1.923857	     110.228866
	 B(2,1,3)         =         1.888944	     108.228510
	 B(2,1,4)         =         1.888942	     108.228430
	 B(2,1,5)         =         1.958498	     112.213685
	 B(3,1,4)         =         1.894645	     108.555139
	 B(3,1,5)         =         1.915744	     109.764043
	 B(4,1,5)         =         1.915737	     109.763622
	 D(2,1,5,6)       =         0.000038	       0.002179
	 D(3,1,5,6)       =        -2.101030	    -120.380177
	 D(4,1,5,6)       =         2.101100	     120.384146

	Current energy   :      -115.0331880462

	Energy change for the previous step:
		Projected    :         0.0000000000
		Actual       :         0.0000000000

	Performing Bofill update.
	Previous computed or guess Hessian on step 1.
	Denominators (dg)(dq) or (dq)(dq) are very small.
	 Skipping Hessian update for step 13.
	Denominators (dg)(dq) or (dq)(dq) are very small.
	 Skipping Hessian update for step 12.
	Denominators (dg)(dq) or (dq)(dq) are very small.
	 Skipping Hessian update for step 11.
	Denominators (dg)(dq) or (dq)(dq) are very small.
	 Skipping Hessian update for step 10.
	Denominators (dg)(dq) or (dq)(dq) are very small.
	 Skipping Hessian update for step 9.
	Denominators (dg)(dq) or (dq)(dq) are very small.
	 Skipping Hessian update for step 8.
	Denominators (dg)(dq) or (dq)(dq) are very small.
	 Skipping Hessian update for step 7.
	Denominators (dg)(dq) or (dq)(dq) are very small.
	 Skipping Hessian update for step 6.
	Denominators (dg)(dq) or (dq)(dq) are very small.
	 Skipping Hessian update for step 5.
	Denominators (dg)(dq) or (dq)(dq) are very small.
	 Skipping Hessian update for step 4.
	Denominators (dg)(dq) or (dq)(dq) are very small.
	 Skipping Hessian update for step 3.
	Steps to be used in Hessian update: 2 1
	Taking PRFO optimization step.
	Maximizing along 1 lowest eigenvalue of Hessian.

 RFO min eigenvalues
 -0.000000 -0.000000 -0.000000  0.000000  0.099435  0.102671  0.144715  0.160150
  0.162457  0.198867  0.348974  0.354358  0.355923  0.424770  0.626096

 RFO max eigenvalues
 -0.002561  0.000000
	Norm of target step-size    0.00002

	Back-transformation to cartesian coordinates...
	Successfully converged to displaced geometry.

	--- Internal Coordinate Step in ANG or DEG, aJ/ANG or AJ/DEG ---
	 ---------------------------------------------------------------------------
	   Coordinate                Previous        Force       Change         New 
	   ----------                --------       ------       ------       ------
	    1 R(1,2)          =      1.085744     0.000004     0.000001     1.085745
	    2 R(1,3)          =      1.084343     0.000000     0.000000     1.084343
	    3 R(1,4)          =      1.084342     0.000003     0.000001     1.084343
	    4 R(1,5)          =      1.403435    -0.000014    -0.000003     1.403432
	    5 R(5,6)          =      0.944168    -0.000011    -0.000001     0.944167
	    6 B(1,5,6)        =    110.228866    -0.000000    -0.000090   110.228776
	    7 B(2,1,3)        =    108.228510    -0.000000    -0.000148   108.228362
	    8 B(2,1,4)        =    108.228430    -0.000000    -0.000073   108.228357
	    9 B(2,1,5)        =    112.213685     0.000000     0.000036   112.213721
	   10 B(3,1,4)        =    108.555139    -0.000000    -0.000037   108.555102
	   11 B(3,1,5)        =    109.764043    -0.000000    -0.000062   109.763981
	   12 B(4,1,5)        =    109.763622     0.000000     0.000277   109.763899
	   13 D(2,1,5,6)      =      0.002179    -0.000000    -0.000855     0.001324
	   14 D(3,1,5,6)      =   -120.380177     0.000000    -0.000649  -120.380826
	   15 D(4,1,5,6)      =    120.384146     0.000000    -0.000734   120.383412
	 ---------------------------------------------------------------------------
	Successfully symmetrized geometry.

  ==> Convergence Check <==

  Measures of convergence in internal coordinates in au.
  Criteria marked as inactive (o), active & met (*), and active & unmet ( ).
  ---------------------------------------------------------------------------------------------
   Step     Total Energy     Delta E     MAX Force     RMS Force      MAX Disp      RMS Disp   
  ---------------------------------------------------------------------------------------------
    Convergence Criteria             o    1.50e-05 *    1.00e-05 *    6.00e-05 *    4.00e-05 *
  ---------------------------------------------------------------------------------------------
     14    -115.03318805    5.71e-12 o    1.64e-06 *    5.89e-07 *    1.49e-05 *    6.26e-06 *  ~
  ---------------------------------------------------------------------------------------------


  **** Optimization is complete! (in 14 steps) ****

  ==> Optimization Summary <==

  Measures of convergence in internal coordinates in au.
  --------------------------------------------------------------------------------------------------------------- ~
   Step         Total Energy             Delta E       MAX Force       RMS Force        MAX Disp        RMS Disp  ~
  --------------------------------------------------------------------------------------------------------------- ~
      1    -115.033186669372   -115.033186669372      0.00105513      0.00030950      0.00178243      0.00085116  ~
      2    -115.033187981903     -0.000001312532      0.00012616      0.00004321      0.00270261      0.00115952  ~
      3    -115.033188043028     -0.000000061125      0.00003560      0.00002089      0.00162969      0.00072556  ~
      4    -115.033188043382     -0.000000000354      0.00004127      0.00001289      0.00049815      0.00021015  ~
      5    -115.033188045755     -0.000000002373      0.00001499      0.00000594      0.00007325      0.00003423  ~
      6    -115.033188046868     -0.000000001113      0.00000638      0.00000219      0.00023948      0.00010471  ~
      7    -115.033188045908      0.000000000960      0.00001368      0.00000467      0.00132164      0.00056211  ~
      8    -115.033188044018      0.000000001890      0.00005630      0.00002054      0.00121535      0.00051298  ~
      9    -115.033188045967     -0.000000001949      0.00000771      0.00000325      0.00009365      0.00004223  ~
     10    -115.033188046239     -0.000000000272      0.00000181      0.00000084      0.00013687      0.00005649  ~
     11    -115.033188046175      0.000000000064      0.00000330      0.00000128      0.00009331      0.00004146  ~
     12    -115.033188046213     -0.000000000038      0.00000314      0.00000108      0.00006770      0.00002844  ~
     13    -115.033188046207      0.000000000006      0.00000161      0.00000060      0.00006206      0.00002691  ~
     14    -115.033188046201      0.000000000006      0.00000164      0.00000059      0.00001492      0.00000626  ~
  --------------------------------------------------------------------------------------------------------------- ~

	Writing optimization data to binary file.
	Final energy is   -115.0331880462012
	Final (previous) structure:
	Cartesian Geometry (in Angstrom)
	    C    -0.7197439903   0.0123015645   0.0056587692
	    H    -1.0749167779   1.0380320363  -0.0181837231
	    H    -1.1066217065  -0.4598641788   0.9018645694
	    H    -1.1212391071  -0.5058339483  -0.8581324387
	    O     0.6815638850  -0.0643296841  -0.0039842217
	    H     1.0557325266   0.8021522392  -0.0296939125
	Saving final (previous) structure.
			--------------------------
			 OPTKING Finished Execution 
			--------------------------

    Final optimized geometry and variables:
    Molecular point group: c1
    Full point group: C1

    Geometry (in Angstrom), charge = 0, multiplicity = 1:

    C           -0.719743990292     0.012301564546     0.005658769153
    H           -1.074916777877     1.038032036332    -0.018183723069
    H           -1.106621706473    -0.459864178762     0.901864569381
    H           -1.121239107053    -0.505833948326    -0.858132438726
    O            0.681563884978    -0.064329684129    -0.003984221719
    H            1.055732526594     0.802152239195    -0.029693912495

	Cleaning optimization helper files.

*** Psi4 exiting successfully. Buy a developer a beer!
