
    -----------------------------------------------------------------------
          Psi4: An Open-Source Ab Initio Electronic Structure Package
                               Psi4 1.1a2.dev170 

                         Git: Rev {master} e4fcd91 dirty


    J. M. Turney, A. C. Simmonett, R. M. Parrish, E. G. Hohenstein,
    F. A. Evangelista, J. T. Fermann, B. J. Mintz, L. A. Burns, J. J. Wilke,
    M. L. Abrams, N. J. Russ, M. L. Leininger, C. L. Janssen, E. T. Seidl,
    W. D. Allen, H. F. Schaefer, R. A. King, E. F. Valeev, C. D. Sherrill,
    and T. D. Crawford, WIREs Comput. Mol. Sci. 2, 556-565 (2012)
    (doi: 10.1002/wcms.93)


                         Additional Contributions by
    A. E. DePrince, U. Bozkaya, A. Yu. Sokolov, D. G. A. Smith, R. Di Remigio,
    R. M. Richard, J. F. Gonthier, H. R. McAlexander, M. Saitow, and
    B. P. Pritchard
    -----------------------------------------------------------------------


    Psi4 started on: Tuesday, 04 April 2017 09:47AM

    Process ID:  43029
    PSIDATADIR: /usr/local/hpc5/psi4conda/envs/p4env/share/psi4
    Memory:     500.0 MiB
    Threads:    16
    
  ==> Input File <==

--------------------------------------------------------------------------
memory 110 Gb

molecule molecule_2 {
0 1
C         -0.72000        0.01200        0.00600
H         -1.07500        1.03800       -0.01800
H         -1.10700       -0.46000        0.90200
H         -1.12100       -0.50600       -0.85800
O          0.68200       -0.06400       -0.00400
H          1.05600        0.80200       -0.03000
}

set globals {
  reference rhf
  opt_type ts
  g_convergence gau_tight
  basis cc-pvtz
  freeze_core true
}
optimize('mp2')
--------------------------------------------------------------------------

  Memory set to 110.000 GiB by Python script.
gradient() will perform analytic gradient computation.

*** tstart() called on wr30
*** at Tue Apr  4 09:47:57 2017

    SCF Algorithm Type (re)set to DF.

         ---------------------------------------------------------
                                   SCF
            by Justin Turney, Rob Parrish, and Andy Simmonett
                              RHF Reference
                       16 Threads, 110000 MiB Core
         ---------------------------------------------------------

  ==> Geometry <==

    Molecular point group: c1
    Full point group: C1

    Geometry (in Angstrom), charge = 0, multiplicity = 1:

       Center              X                  Y                   Z               Mass       
    ------------   -----------------  -----------------  -----------------  -----------------
           C         -0.720123302848     0.011963637839     0.005875444494    12.000000000000
           H         -1.075123302848     1.037963637839    -0.018124555506     1.007825032070
           H         -1.107123302848    -0.460036362161     0.901875444494     1.007825032070
           H         -1.121123302848    -0.506036362161    -0.858124555506     1.007825032070
           O          0.681876697152    -0.064036362161    -0.004124555506    15.994914619560
           H          1.055876697152     0.801963637839    -0.030124555506     1.007825032070

  Running in c1 symmetry.

  Rotational constants: A =      4.39549  B =      0.84230  C =      0.81340 [cm^-1]
  Rotational constants: A = 131773.33925  B =  25251.53092  C =  24385.17921 [MHz]
  Nuclear repulsion =   40.719767913120720

  Charge       = 0
  Multiplicity = 1
  Electrons    = 18
  Nalpha       = 9
  Nbeta        = 9

  ==> Algorithm <==

  SCF Algorithm Type is DF.
  DIIS enabled.
  MOM disabled.
  Fractional occupation disabled.
  Guess Type is SAD.
  Energy threshold   = 1.00e-10
  Density threshold  = 1.00e-10
  Integral threshold = 0.00e+00

  ==> Primary Basis <==

  Basis Set: file /usr/local/hpc5/psi4conda/envs/p4env/share/psi4/basis/cc-pvtz.gbs
    Number of shells: 44
    Number of basis function: 116
    Number of Cartesian functions: 130
    Spherical Harmonics?: true
    Max angular momentum: 3

  ==> Pre-Iterations <==

   -------------------------------------------------------
    Irrep   Nso     Nmo     Nalpha   Nbeta   Ndocc  Nsocc
   -------------------------------------------------------
     A        116     116       0       0       0       0
   -------------------------------------------------------
    Total     116     116       9       9       9       0
   -------------------------------------------------------

  ==> Integral Setup <==

  ==> DFJK: Density-Fitted J/K Matrices <==

    J tasked:                  Yes
    K tasked:                  Yes
    wK tasked:                  No
    OpenMP threads:             16
    Integrals threads:          16
    Memory (MB):             78678
    Algorithm:                Core
    Integral Cache:           NONE
    Schwarz Cutoff:          1E-12
    Fitting Condition:       1E-12

   => Auxiliary Basis Set <=

  Basis Set: file /usr/local/hpc5/psi4conda/envs/p4env/share/psi4/basis/cc-pvtz-jkfit.gbs
    Number of shells: 90
    Number of basis function: 278
    Number of Cartesian functions: 332
    Spherical Harmonics?: true
    Max angular momentum: 4

  Minimum eigenvalue in the overlap matrix is 1.7819544383E-03.
  Using Symmetric Orthogonalization.

  SCF Guess: Superposition of Atomic Densities via on-the-fly atomic UHF.

  ==> Iterations <==

                           Total Energy        Delta E     RMS |[F,P]|

   @DF-RHF iter   0:  -115.26705607991106   -1.15267e+02   2.09847e-02 
   @DF-RHF iter   1:  -115.01884541906222    2.48211e-01   3.32971e-03 
   @DF-RHF iter   2:  -115.06890204520013   -5.00566e-02   2.04316e-03 DIIS
   @DF-RHF iter   3:  -115.08739696189707   -1.84949e-02   2.95182e-04 DIIS
   @DF-RHF iter   4:  -115.08832081253237   -9.23851e-04   5.69193e-05 DIIS
   @DF-RHF iter   5:  -115.08836509228247   -4.42798e-05   1.75593e-05 DIIS
   @DF-RHF iter   6:  -115.08836896280806   -3.87053e-06   5.10063e-06 DIIS
   @DF-RHF iter   7:  -115.08836930980023   -3.46992e-07   1.22718e-06 DIIS
   @DF-RHF iter   8:  -115.08836933747705   -2.76768e-08   2.86504e-07 DIIS
   @DF-RHF iter   9:  -115.08836933877507   -1.29802e-09   6.02478e-08 DIIS
   @DF-RHF iter  10:  -115.08836933884409   -6.90221e-11   1.19226e-08 DIIS
   @DF-RHF iter  11:  -115.08836933884692   -2.82796e-12   2.58393e-09 DIIS
   @DF-RHF iter  12:  -115.08836933884702   -9.94760e-14   6.61670e-10 DIIS
   @DF-RHF iter  13:  -115.08836933884722   -1.98952e-13   1.43819e-10 DIIS
   @DF-RHF iter  14:  -115.08836933884710    1.13687e-13   2.98357e-11 DIIS

  ==> Post-Iterations <==

    Orbital Energies (a.u.)
    -----------------------

    Doubly Occupied:                                                      

       1A    -20.547648     2A    -11.265193     3A     -1.360741  
       4A     -0.927153     5A     -0.695246     6A     -0.620529  
       7A     -0.597829     8A     -0.498936     9A     -0.445555  

    Virtual:                                                              

      10A      0.138204    11A      0.178432    12A      0.223351  
      13A      0.227627    14A      0.295625    15A      0.386597  
      16A      0.391858    17A      0.564563    18A      0.583988  
      19A      0.627338    20A      0.627818    21A      0.662471  
      22A      0.685483    23A      0.711380    24A      0.727883  
      25A      0.812952    26A      0.845332    27A      0.863659  
      28A      0.952632    29A      1.073693    30A      1.113836  
      31A      1.175602    32A      1.183274    33A      1.235900  
      34A      1.281210    35A      1.288344    36A      1.325436  
      37A      1.464193    38A      1.517097    39A      1.521679  
      40A      1.531155    41A      1.577489    42A      1.647640  
      43A      1.786473    44A      2.103050    45A      2.189517  
      46A      2.202701    47A      2.228106    48A      2.381608  
      49A      2.502097    50A      2.506930    51A      2.533997  
      52A      2.824602    53A      2.971033    54A      3.033160  
      55A      3.073166    56A      3.118492    57A      3.185023  
      58A      3.189833    59A      3.288404    60A      3.310159  
      61A      3.342208    62A      3.365335    63A      3.487505  
      64A      3.500035    65A      3.597980    66A      3.624627  
      67A      3.688256    68A      3.727753    69A      3.743056  
      70A      3.760351    71A      3.822779    72A      3.879496  
      73A      3.928040    74A      4.009678    75A      4.046197  
      76A      4.120322    77A      4.121263    78A      4.174018  
      79A      4.270043    80A      4.315689    81A      4.339309  
      82A      4.387293    83A      4.411656    84A      4.460270  
      85A      4.553693    86A      4.593166    87A      4.721576  
      88A      4.785165    89A      5.026409    90A      5.055162  
      91A      5.060468    92A      5.255737    93A      5.324483  
      94A      5.346085    95A      5.349886    96A      5.452657  
      97A      5.547369    98A      5.562605    99A      5.663335  
     100A      5.819795   101A      6.042155   102A      6.106511  
     103A      6.235826   104A      6.278431   105A      6.460511  
     106A      6.684458   107A      7.046487   108A      7.156831  
     109A      7.230456   110A      7.269339   111A      7.368645  
     112A      7.501972   113A      7.614898   114A      7.946845  
     115A     12.266993   116A     13.888846  

    Final Occupation by Irrep:
              A 
    DOCC [     9 ]

  Energy converged.

  @DF-RHF Final Energy:  -115.08836933884710

   => Energetics <=

    Nuclear Repulsion Energy =             40.7197679131207195
    One-Electron Energy =                -237.6986117458822036
    Two-Electron Energy =                  81.8904744939143683
    DFT Exchange-Correlation Energy =       0.0000000000000000
    Empirical Dispersion Energy =           0.0000000000000000
    PCM Polarization Energy =               0.0000000000000000
    EFP Energy =                            0.0000000000000000
    Total Energy =                       -115.0883693388471016

    Alert: EFP and PCM quantities not currently incorporated into SCF psivars.

Properties will be evaluated at   0.000000,   0.000000,   0.000000 Bohr

Properties computed using the SCF density matrix

  Nuclear Dipole Moment: (a.u.)
     X:    -2.1037      Y:     0.8189      Z:    -0.0042

  Electronic Dipole Moment: (a.u.)
     X:     1.7569      Y:    -0.2058      Z:    -0.0089

  Dipole Moment: (a.u.)
     X:    -0.3468      Y:     0.6131      Z:    -0.0131     Total:     0.7045

  Dipole Moment: (Debye)
     X:    -0.8814      Y:     1.5583      Z:    -0.0334     Total:     1.7906


  //>>>>>>>>>>>>>>>>>>>>>>>>>>>>>>>>>>>//
  //               DFMP2               //
  //<<<<<<<<<<<<<<<<<<<<<<<<<<<<<<<<<<<//

	 --------------------------------------------------------
	                          DF-MP2                         
	      2nd-Order Density-Fitted Moller-Plesset Theory     
	              RMP2 Wavefunction,  16 Threads             
	                                                         
	        Rob Parrish, Justin Turney, Andy Simmonett,      
	           Ed Hohenstein, and C. David Sherrill          
	 --------------------------------------------------------

   => Auxiliary Basis Set <=

  Basis Set: file /usr/local/hpc5/psi4conda/envs/p4env/share/psi4/basis/cc-pvtz-ri.gbs
    Number of shells: 86
    Number of basis function: 282
    Number of Cartesian functions: 342
    Spherical Harmonics?: true
    Max angular momentum: 4

	 --------------------------------------------------------
	                 NBF =   116, NAUX =   282
	 --------------------------------------------------------
	   CLASS    FOCC     OCC    AOCC    AVIR     VIR    FVIR
	   PAIRS       2       9       7     107     107       0
	 --------------------------------------------------------


         ------------------------------------------------------------
                                     CPHF                           
                                  Rob Parrish                       
         ------------------------------------------------------------

  ==> Geometry <==

    Molecular point group: c1
    Full point group: C1

    Geometry (in Angstrom), charge = 0, multiplicity = 1:

       Center              X                  Y                   Z               Mass       
    ------------   -----------------  -----------------  -----------------  -----------------
           C         -0.720123302848     0.011963637839     0.005875444494    12.000000000000
           H         -1.075123302848     1.037963637839    -0.018124555506     1.007825032070
           H         -1.107123302848    -0.460036362161     0.901875444494     1.007825032070
           H         -1.121123302848    -0.506036362161    -0.858124555506     1.007825032070
           O          0.681876697152    -0.064036362161    -0.004124555506    15.994914619560
           H          1.055876697152     0.801963637839    -0.030124555506     1.007825032070

  Nuclear repulsion =   40.719767913120720
  Reference energy  = -115.088369338847102

  ==> Basis Set <==

  Basis Set: file /usr/local/hpc5/psi4conda/envs/p4env/share/psi4/basis/cc-pvtz.gbs
    Number of shells: 44
    Number of basis function: 116
    Number of Cartesian functions: 130
    Spherical Harmonics?: true
    Max angular momentum: 3

  ==> CGRSolver (by Rob Parrish) <==

   Number of roots    =         1
   Preconditioning    =    JACOBI
   Convergence cutoff =     1E-06
   Maximum iterations =       100

  ==> CPHFRHamiltonian (by Rob Parrish) <== 

  ==> DFJK: Density-Fitted J/K Matrices <==

    J tasked:                  Yes
    K tasked:                  Yes
    wK tasked:                  No
    OpenMP threads:             16
    Integrals threads:          16
    Memory (MB):             78678
    Algorithm:                Core
    Integral Cache:           NONE
    Schwarz Cutoff:          1E-12
    Fitting Condition:       1E-12

   => Auxiliary Basis Set <=

  Basis Set: file /usr/local/hpc5/psi4conda/envs/p4env/share/psi4/basis/cc-pvtz-jkfit.gbs
    Number of shells: 90
    Number of basis function: 278
    Number of Cartesian functions: 332
    Spherical Harmonics?: true
    Max angular momentum: 4

  ==> CPHF Iterations <==

  => Iterations <=

             Iter  Converged  Remaining    Residual
  CGR           1          0          1   5.594E-02
  CGR           2          0          1   1.137E-02
  CGR           3          0          1   3.157E-03
  CGR           4          0          1   1.044E-03
  CGR           5          0          1   2.318E-04
  CGR           6          0          1   4.636E-05
  CGR           7          0          1   7.011E-06
  CGR           8          0          1   1.694E-06
  CGR           9          1          0   3.461E-07

    CGRSolver converged.

  ==> DFCorrGrad: Density-Fitted Correlated Gradients <==

    OpenMP threads:             16
    Integrals threads:          16
    Memory (MB):             78678
    Schwarz Cutoff:          0E+00
    Fitting Condition:       1E-12

   => Auxiliary Basis Set <=

  Basis Set: file /usr/local/hpc5/psi4conda/envs/p4env/share/psi4/basis/cc-pvtz-jkfit.gbs
    Number of shells: 90
    Number of basis function: 278
    Number of Cartesian functions: 332
    Spherical Harmonics?: true
    Max angular momentum: 4

	-----------------------------------------------------------
	 ==================> DF-MP2 Energies <==================== 
	-----------------------------------------------------------
	 Reference Energy          =    -115.0883693388471016 [Eh]
	 Singles Energy            =      -0.0000000000000000 [Eh]
	 Same-Spin Energy          =      -0.0979667968686326 [Eh]
	 Opposite-Spin Energy      =      -0.3287120645555431 [Eh]
	 Correlation Energy        =      -0.4266788614241758 [Eh]
	 Total Energy              =    -115.5150482002712806 [Eh]
	-----------------------------------------------------------
	 ================> DF-SCS-MP2 Energies <================== 
	-----------------------------------------------------------
	 SCS Same-Spin Scale       =       0.3333333333333333 [-]
	 SCS Opposite-Spin Scale   =       1.2000000000000000 [-]
	 SCS Same-Spin Energy      =      -0.0326555989562109 [Eh]
	 SCS Opposite-Spin Energy  =      -0.3944544774666517 [Eh]
	 SCS Correlation Energy    =      -0.4271100764228626 [Eh]
	 SCS Total Energy          =    -115.5154794152699651 [Eh]
	-----------------------------------------------------------


  -Total Gradient:
     Atom            X                  Y                   Z
    ------   -----------------  -----------------  -----------------
       1        0.004922091491    -0.003525328790     0.000220217345
       2        0.001994184047    -0.001945834448     0.000028517878
       3        0.001899243328     0.001244788974    -0.002679446158
       4        0.002018693666     0.001337807694     0.002488465694
       5       -0.008126154367     0.016632451995    -0.000433388089
       6       -0.002708058166    -0.013743885425     0.000375633330


*** tstop() called on wr30 at Tue Apr  4 09:48:04 2017
Module time:
	user time   =      70.60 seconds =       1.18 minutes
	system time =       2.47 seconds =       0.04 minutes
	total time  =          7 seconds =       0.12 minutes
Total time:
	user time   =      70.60 seconds =       1.18 minutes
	system time =       2.47 seconds =       0.04 minutes
	total time  =          7 seconds =       0.12 minutes

			-----------------------------------------
			 OPTKING 2.0: for geometry optimizations 
			  - R.A. King,  Bethel University        
			-----------------------------------------

	Internal coordinates to be generated automatically.
	Detected frag 1 with atoms:  1 2 3 4 5 6
	---Fragment 1 Bond Connectivity---
	 1 : 2 3 4 5
	 2 : 1
	 3 : 1
	 4 : 1
	 5 : 1 6
	 6 : 5

	---Fragment 1 Geometry and Gradient---
	 C          -1.3608358243        0.0226079991        0.0111029810
	 H          -2.0316886015        1.9614670114       -0.0342504462
	 H          -2.0921598377       -0.8693427357        1.7042975961
	 H          -2.1186160036       -0.9562701378       -1.6216203978
	 O           1.2885602140       -0.1210111870       -0.0077942803
	 H           1.9953177877        1.5154916440       -0.0569271598
	             0.0049220915       -0.0035253288        0.0002202173
	             0.0019941840       -0.0019458344        0.0000285179
	             0.0018992433        0.0012447890       -0.0026794462
	             0.0020186937        0.0013378077        0.0024884657
	            -0.0081261544        0.0166324520       -0.0004333881
	            -0.0027080582       -0.0137438854        0.0003756333

	Previous optimization step data not found.  Starting new optimization.

	---Fragment 1 Intrafragment Coordinates---
	 - Coordinate -           - BOHR/RAD -       - ANG/DEG -
	 R(1,2)           =         2.052139	       1.085945
	 R(1,3)           =         2.048736	       1.084144
	 R(1,4)           =         2.048956	       1.084261
	 R(1,5)           =         2.653353	       1.404094
	 R(5,6)           =         1.783273	       0.943667
	 B(1,5,6)         =         1.924377	     110.258652
	 B(2,1,3)         =         1.889048	     108.234451
	 B(2,1,4)         =         1.889000	     108.231711
	 B(2,1,5)         =         1.957782	     112.172649
	 B(3,1,4)         =         1.895002	     108.575621
	 B(3,1,5)         =         1.916386	     109.800855
	 B(4,1,5)         =         1.915323	     109.739936
	 D(2,1,5,6)       =         0.000028	       0.001586
	 D(3,1,5,6)       =        -2.101141	    -120.386525
	 D(4,1,5,6)       =         2.100410	     120.344633

	Current energy   :      -115.5150482003

	Generating empirical Hessian (Schlegel '84) for each fragment.
	Taking PRFO optimization step.
	Maximizing along 1 lowest eigenvalue of Hessian.

 RFO min eigenvalues
 -0.000877  0.000000  0.000000  0.004404  0.096618  0.099347  0.160000  0.160000
  0.160000  0.160209  0.352872  0.354869  0.355023  0.449755  0.591718

 RFO max eigenvalues
 -0.000000  0.000000
	Norm of target step-size    0.05243

	Back-transformation to cartesian coordinates...
	Could not converge backtransformation.
	Using first guess instead.

	--- Internal Coordinate Step in ANG or DEG, aJ/ANG or AJ/DEG ---
	 ---------------------------------------------------------------------------
	   Coordinate                Previous        Force       Change         New 
	   ----------                --------       ------       ------       ------
	    1 R(1,2)          =      1.085945     0.020522     0.003730     1.089675
	    2 R(1,3)          =      1.084144     0.028295     0.005134     1.089278
	    3 R(1,4)          =      1.084261     0.027754     0.005046     1.089307
	    4 R(1,5)          =      1.404094     0.090412     0.012926     1.417020
	    5 R(5,6)          =      0.943667     0.112840     0.012556     0.956223
	    6 B(1,5,6)        =    110.258652    -0.000402    -1.858814   108.399838
	    7 B(2,1,3)        =    108.234451    -0.000080    -0.376432   107.858019
	    8 B(2,1,4)        =    108.231711    -0.000082    -0.370185   107.861526
	    9 B(2,1,5)        =    112.172649     0.000111     0.520524   112.693172
	   10 B(3,1,4)        =    108.575621    -0.000056    -0.279604   108.296017
	   11 B(3,1,5)        =    109.800855     0.000042     0.188820   109.989675
	   12 B(4,1,5)        =    109.739936     0.000058     0.271577   110.011513
	   13 D(2,1,5,6)      =      0.001586    -0.000001     0.034342     0.035928
	   14 D(3,1,5,6)      =   -120.386525    -0.000000     0.036889  -120.349636
	   15 D(4,1,5,6)      =    120.344633     0.000001     0.096573   120.441205
	 ---------------------------------------------------------------------------
	Successfully symmetrized geometry.

  ==> Convergence Check <==

  Measures of convergence in internal coordinates in au.
  Criteria marked as inactive (o), active & met (*), and active & unmet ( ).
  --------------------------------------------------------------------------------------------- ~
   Step     Total Energy     Delta E     MAX Force     RMS Force      MAX Disp      RMS Disp    ~
  --------------------------------------------------------------------------------------------- ~
    Convergence Criteria             o    1.50e-05 *    1.00e-05 *    6.00e-05 *    4.00e-05 *  ~
  --------------------------------------------------------------------------------------------- ~
      1    -115.51504820   -1.16e+02 o    1.37e-02      4.97e-03      3.24e-02      1.34e-02    ~
  ---------------------------------------------------------------------------------------------

	Writing optimization data to binary file.
	Structure for next step:
	Cartesian Geometry (in Angstrom)
	    C    -0.7175793844   0.0110825729   0.0055171017
	    H    -1.0763315665   1.0397305144  -0.0183954015
	    H    -1.1131972704  -0.4598492398   0.9045369884
	    H    -1.1284079292  -0.5062640424  -0.8606018332
	    O     0.6967918140  -0.0749770836  -0.0040868657
	    H     1.0529845194   0.8120591055  -0.0297173227
			--------------------------
			 OPTKING Finished Execution 
			--------------------------

    Structure for next step:
    Molecular point group: c1
    Full point group: C1

    Geometry (in Angstrom), charge = 0, multiplicity = 1:

    C           -0.725432244620     0.016504830725     0.005622456220
    H           -1.084184426774     1.045152772245    -0.018290046935
    H           -1.121050130697    -0.454426982006     0.904642342907
    H           -1.136260789451    -0.500841784610    -0.860496478707
    O            0.688938953713    -0.069554825845    -0.003981511203
    H            1.045131659138     0.817481363328    -0.029611968156

gradient() will perform analytic gradient computation.

*** tstart() called on wr30
*** at Tue Apr  4 09:48:04 2017

    SCF Algorithm Type (re)set to DF.

         ---------------------------------------------------------
                                   SCF
            by Justin Turney, Rob Parrish, and Andy Simmonett
                              RHF Reference
                       16 Threads, 110000 MiB Core
         ---------------------------------------------------------

  ==> Geometry <==

    Molecular point group: c1
    Full point group: C1

    Geometry (in Angstrom), charge = 0, multiplicity = 1:

       Center              X                  Y                   Z               Mass       
    ------------   -----------------  -----------------  -----------------  -----------------
           C         -0.725432244620     0.016504830725     0.005622456220    12.000000000000
           H         -1.084184426774     1.045152772245    -0.018290046935     1.007825032070
           H         -1.121050130697    -0.454426982006     0.904642342907     1.007825032070
           H         -1.136260789451    -0.500841784610    -0.860496478707     1.007825032070
           O          0.688938953713    -0.069554825845    -0.003981511203    15.994914619560
           H          1.045131659138     0.817481363328    -0.029611968156     1.007825032070

  Running in c1 symmetry.

  Rotational constants: A =      4.33687  B =      0.82907  C =      0.79979 [cm^-1]
  Rotational constants: A = 130016.18477  B =  24854.94277  C =  23976.96789 [MHz]
  Nuclear repulsion =   40.400082009816309

  Charge       = 0
  Multiplicity = 1
  Electrons    = 18
  Nalpha       = 9
  Nbeta        = 9

  ==> Algorithm <==

  SCF Algorithm Type is DF.
  DIIS enabled.
  MOM disabled.
  Fractional occupation disabled.
  Guess Type is READ.
  Energy threshold   = 1.00e-10
  Density threshold  = 1.00e-10
  Integral threshold = 0.00e+00

  ==> Primary Basis <==

  Basis Set: file /usr/local/hpc5/psi4conda/envs/p4env/share/psi4/basis/cc-pvtz.gbs
    Number of shells: 44
    Number of basis function: 116
    Number of Cartesian functions: 130
    Spherical Harmonics?: true
    Max angular momentum: 3

  Reading orbitals from file 180, no projection.

  ==> Pre-Iterations <==

   -------------------------------------------------------
    Irrep   Nso     Nmo     Nalpha   Nbeta   Ndocc  Nsocc
   -------------------------------------------------------
     A        116     116       0       0       0       0
   -------------------------------------------------------
    Total     116     116       9       9       9       0
   -------------------------------------------------------

  ==> Integral Setup <==

  ==> DFJK: Density-Fitted J/K Matrices <==

    J tasked:                  Yes
    K tasked:                  Yes
    wK tasked:                  No
    OpenMP threads:             16
    Integrals threads:          16
    Memory (MB):             78678
    Algorithm:                Core
    Integral Cache:           NONE
    Schwarz Cutoff:          1E-12
    Fitting Condition:       1E-12

   => Auxiliary Basis Set <=

  Basis Set: file /usr/local/hpc5/psi4conda/envs/p4env/share/psi4/basis/cc-pvtz-jkfit.gbs
    Number of shells: 90
    Number of basis function: 278
    Number of Cartesian functions: 332
    Spherical Harmonics?: true
    Max angular momentum: 4

  Minimum eigenvalue in the overlap matrix is 1.8158927262E-03.
  Using Symmetric Orthogonalization.

  SCF Guess: Orbitals guess was supplied from a previous computation.

  ==> Iterations <==

                           Total Energy        Delta E     RMS |[F,P]|

   @DF-RHF iter   0:  -115.06837817836298   -1.15068e+02   3.77180e-04 
   @DF-RHF iter   1:  -115.08766705725428   -1.92889e-02   5.19034e-05 
   @DF-RHF iter   2:  -115.08768903712139   -2.19799e-05   2.06500e-05 DIIS
   @DF-RHF iter   3:  -115.08769191656468   -2.87944e-06   6.92358e-06 DIIS
   @DF-RHF iter   4:  -115.08769255131101   -6.34746e-07   2.50223e-06 DIIS
   @DF-RHF iter   5:  -115.08769262691328   -7.56023e-08   7.53920e-07 DIIS
   @DF-RHF iter   6:  -115.08769263368839   -6.77511e-09   2.05465e-07 DIIS
   @DF-RHF iter   7:  -115.08769263428398   -5.95591e-10   3.84298e-08 DIIS
   @DF-RHF iter   8:  -115.08769263430794   -2.39595e-11   8.07727e-09 DIIS
   @DF-RHF iter   9:  -115.08769263430926   -1.32161e-12   1.73404e-09 DIIS
   @DF-RHF iter  10:  -115.08769263430936   -9.94760e-14   3.02496e-10 DIIS
   @DF-RHF iter  11:  -115.08769263430939   -2.84217e-14   6.51746e-11 DIIS

  ==> Post-Iterations <==

    Orbital Energies (a.u.)
    -----------------------

    Doubly Occupied:                                                      

       1A    -20.550656     2A    -11.268100     3A     -1.354900  
       4A     -0.924534     5A     -0.690300     6A     -0.617255  
       7A     -0.593434     8A     -0.500985     9A     -0.446677  

    Virtual:                                                              

      10A      0.137196    11A      0.177292    12A      0.222721  
      13A      0.226927    14A      0.295269    15A      0.386991  
      16A      0.391782    17A      0.554992    18A      0.582991  
      19A      0.624839    20A      0.625644    21A      0.656197  
      22A      0.683798    23A      0.706004    24A      0.725218  
      25A      0.809549    26A      0.847400    27A      0.863073  
      28A      0.946259    29A      1.072170    30A      1.114257  
      31A      1.175861    32A      1.184116    33A      1.233324  
      34A      1.277348    35A      1.284069    36A      1.327598  
      37A      1.463828    38A      1.509728    39A      1.518778  
      40A      1.526559    41A      1.575706    42A      1.630219  
      43A      1.779972    44A      2.101004    45A      2.188907  
      46A      2.212443    47A      2.231680    48A      2.368225  
      49A      2.495503    50A      2.496472    51A      2.536819  
      52A      2.821667    53A      2.961321    54A      3.031885  
      55A      3.072766    56A      3.114137    57A      3.184906  
      58A      3.188000    59A      3.287617    60A      3.305835  
      61A      3.338635    62A      3.359332    63A      3.482032  
      64A      3.483107    65A      3.583166    66A      3.623154  
      67A      3.684315    68A      3.715653    69A      3.733312  
      70A      3.754993    71A      3.823664    72A      3.867695  
      73A      3.920770    74A      3.998893    75A      4.032198  
      76A      4.109221    77A      4.114361    78A      4.163884  
      79A      4.256570    80A      4.311063    81A      4.337008  
      82A      4.370303    83A      4.404828    84A      4.434497  
      85A      4.546127    86A      4.585269    87A      4.706257  
      88A      4.765220    89A      5.000254    90A      5.027557  
      91A      5.038532    92A      5.225688    93A      5.315657  
      94A      5.333954    95A      5.341094    96A      5.422091  
      97A      5.531148    98A      5.550823    99A      5.650350  
     100A      5.792352   101A      6.031936   102A      6.108557  
     103A      6.228240   104A      6.264297   105A      6.424415  
     106A      6.650646   107A      7.023673   108A      7.123961  
     109A      7.162751   110A      7.272777   111A      7.362411  
     112A      7.481242   113A      7.610071   114A      7.902471  
     115A     12.116327   116A     13.744343  

    Final Occupation by Irrep:
              A 
    DOCC [     9 ]

  Energy converged.

  @DF-RHF Final Energy:  -115.08769263430939

   => Energetics <=

    Nuclear Repulsion Energy =             40.4000820098163089
    One-Electron Energy =                -237.0818675284928929
    Two-Electron Energy =                  81.5940928843671855
    DFT Exchange-Correlation Energy =       0.0000000000000000
    Empirical Dispersion Energy =           0.0000000000000000
    PCM Polarization Energy =               0.0000000000000000
    EFP Energy =                            0.0000000000000000
    Total Energy =                       -115.0876926343093913

    Alert: EFP and PCM quantities not currently incorporated into SCF psivars.

Properties will be evaluated at   0.000000,   0.000000,   0.000000 Bohr

Properties computed using the SCF density matrix

  Nuclear Dipole Moment: (a.u.)
     X:    -2.1495      Y:     0.8503      Z:    -0.0035

  Electronic Dipole Moment: (a.u.)
     X:     1.7786      Y:    -0.2270      Z:    -0.0093

  Dipole Moment: (a.u.)
     X:    -0.3709      Y:     0.6233      Z:    -0.0128     Total:     0.7254

  Dipole Moment: (Debye)
     X:    -0.9428      Y:     1.5842      Z:    -0.0326     Total:     1.8438


  //>>>>>>>>>>>>>>>>>>>>>>>>>>>>>>>>>>>//
  //               DFMP2               //
  //<<<<<<<<<<<<<<<<<<<<<<<<<<<<<<<<<<<//

	 --------------------------------------------------------
	                          DF-MP2                         
	      2nd-Order Density-Fitted Moller-Plesset Theory     
	              RMP2 Wavefunction,  16 Threads             
	                                                         
	        Rob Parrish, Justin Turney, Andy Simmonett,      
	           Ed Hohenstein, and C. David Sherrill          
	 --------------------------------------------------------

   => Auxiliary Basis Set <=

  Basis Set: file /usr/local/hpc5/psi4conda/envs/p4env/share/psi4/basis/cc-pvtz-ri.gbs
    Number of shells: 86
    Number of basis function: 282
    Number of Cartesian functions: 342
    Spherical Harmonics?: true
    Max angular momentum: 4

	 --------------------------------------------------------
	                 NBF =   116, NAUX =   282
	 --------------------------------------------------------
	   CLASS    FOCC     OCC    AOCC    AVIR     VIR    FVIR
	   PAIRS       2       9       7     107     107       0
	 --------------------------------------------------------


         ------------------------------------------------------------
                                     CPHF                           
                                  Rob Parrish                       
         ------------------------------------------------------------

  ==> Geometry <==

    Molecular point group: c1
    Full point group: C1

    Geometry (in Angstrom), charge = 0, multiplicity = 1:

       Center              X                  Y                   Z               Mass       
    ------------   -----------------  -----------------  -----------------  -----------------
           C         -0.725432244620     0.016504830725     0.005622456220    12.000000000000
           H         -1.084184426774     1.045152772245    -0.018290046935     1.007825032070
           H         -1.121050130697    -0.454426982006     0.904642342907     1.007825032070
           H         -1.136260789451    -0.500841784610    -0.860496478707     1.007825032070
           O          0.688938953713    -0.069554825845    -0.003981511203    15.994914619560
           H          1.045131659138     0.817481363328    -0.029611968156     1.007825032070

  Nuclear repulsion =   40.400082009816309
  Reference energy  = -115.087692634309391

  ==> Basis Set <==

  Basis Set: file /usr/local/hpc5/psi4conda/envs/p4env/share/psi4/basis/cc-pvtz.gbs
    Number of shells: 44
    Number of basis function: 116
    Number of Cartesian functions: 130
    Spherical Harmonics?: true
    Max angular momentum: 3

  ==> CGRSolver (by Rob Parrish) <==

   Number of roots    =         1
   Preconditioning    =    JACOBI
   Convergence cutoff =     1E-06
   Maximum iterations =       100

  ==> CPHFRHamiltonian (by Rob Parrish) <== 

  ==> DFJK: Density-Fitted J/K Matrices <==

    J tasked:                  Yes
    K tasked:                  Yes
    wK tasked:                  No
    OpenMP threads:             16
    Integrals threads:          16
    Memory (MB):             78678
    Algorithm:                Core
    Integral Cache:           NONE
    Schwarz Cutoff:          1E-12
    Fitting Condition:       1E-12

   => Auxiliary Basis Set <=

  Basis Set: file /usr/local/hpc5/psi4conda/envs/p4env/share/psi4/basis/cc-pvtz-jkfit.gbs
    Number of shells: 90
    Number of basis function: 278
    Number of Cartesian functions: 332
    Spherical Harmonics?: true
    Max angular momentum: 4

  ==> CPHF Iterations <==

  => Iterations <=

             Iter  Converged  Remaining    Residual
  CGR           1          0          1   5.694E-02
  CGR           2          0          1   1.182E-02
  CGR           3          0          1   3.609E-03
  CGR           4          0          1   1.141E-03
  CGR           5          0          1   2.474E-04
  CGR           6          0          1   5.034E-05
  CGR           7          0          1   7.837E-06
  CGR           8          0          1   1.950E-06
  CGR           9          1          0   4.178E-07

    CGRSolver converged.

  ==> DFCorrGrad: Density-Fitted Correlated Gradients <==

    OpenMP threads:             16
    Integrals threads:          16
    Memory (MB):             78678
    Schwarz Cutoff:          0E+00
    Fitting Condition:       1E-12

   => Auxiliary Basis Set <=

  Basis Set: file /usr/local/hpc5/psi4conda/envs/p4env/share/psi4/basis/cc-pvtz-jkfit.gbs
    Number of shells: 90
    Number of basis function: 278
    Number of Cartesian functions: 332
    Spherical Harmonics?: true
    Max angular momentum: 4

	-----------------------------------------------------------
	 ==================> DF-MP2 Energies <==================== 
	-----------------------------------------------------------
	 Reference Energy          =    -115.0876926343093913 [Eh]
	 Singles Energy            =      -0.0000000000000000 [Eh]
	 Same-Spin Energy          =      -0.0981844718643584 [Eh]
	 Opposite-Spin Energy      =      -0.3296559277489688 [Eh]
	 Correlation Energy        =      -0.4278403996133272 [Eh]
	 Total Energy              =    -115.5155330339227220 [Eh]
	-----------------------------------------------------------
	 ================> DF-SCS-MP2 Energies <================== 
	-----------------------------------------------------------
	 SCS Same-Spin Scale       =       0.3333333333333333 [-]
	 SCS Opposite-Spin Scale   =       1.2000000000000000 [-]
	 SCS Same-Spin Energy      =      -0.0327281572881195 [Eh]
	 SCS Opposite-Spin Energy  =      -0.3955871132987626 [Eh]
	 SCS Correlation Energy    =      -0.4283152705868821 [Eh]
	 SCS Total Energy          =    -115.5160079048962700 [Eh]
	-----------------------------------------------------------


  -Total Gradient:
     Atom            X                  Y                   Z
    ------   -----------------  -----------------  -----------------
       1        0.003637875119    -0.000510143867    -0.000054166034
       2       -0.000567598970    -0.000001027791     0.000012884594
       3       -0.000394790491     0.000007953411    -0.000035075464
       4       -0.000447675642    -0.000000475404     0.000036943181
       5       -0.002616355103     0.001457617525     0.000016943841
       6        0.000388545088    -0.000953923874     0.000022469882


*** tstop() called on wr30 at Tue Apr  4 09:48:10 2017
Module time:
	user time   =      54.76 seconds =       0.91 minutes
	system time =       1.80 seconds =       0.03 minutes
	total time  =          6 seconds =       0.10 minutes
Total time:
	user time   =     125.66 seconds =       2.09 minutes
	system time =       4.28 seconds =       0.07 minutes
	total time  =         13 seconds =       0.22 minutes

			-----------------------------------------
			 OPTKING 2.0: for geometry optimizations 
			  - R.A. King,  Bethel University        
			-----------------------------------------

	Previous internal coordinate definitions found.
	---Fragment 1 Geometry and Gradient---
	 C          -1.3708682703        0.0311896099        0.0106249025
	 H          -2.0488116441        1.9750525066       -0.0345631797
	 H          -2.1184777283       -0.8587425434        1.7095262763
	 H          -2.1472217076       -0.9464538088       -1.6261026831
	 O           1.3019059448       -0.1314395721       -0.0075239658
	 H           1.9750126086        1.5448158954       -0.0559585101
	             0.0036378751       -0.0005101439       -0.0000541660
	            -0.0005675990       -0.0000010278        0.0000128846
	            -0.0003947905        0.0000079534       -0.0000350755
	            -0.0004476756       -0.0000004754        0.0000369432
	            -0.0026163551        0.0014576175        0.0000169438
	             0.0003885451       -0.0009539239        0.0000224699

	---Fragment 1 Intrafragment Coordinates---
	 - Coordinate -           - BOHR/RAD -       - ANG/DEG -
	 R(1,2)           =         2.059187	       1.089675
	 R(1,3)           =         2.058438	       1.089278
	 R(1,4)           =         2.058492	       1.089307
	 R(1,5)           =         2.677779	       1.417020
	 R(5,6)           =         1.807001	       0.956223
	 B(1,5,6)         =         1.891934	     108.399838
	 B(2,1,3)         =         1.882478	     107.858019
	 B(2,1,4)         =         1.882539	     107.861526
	 B(2,1,5)         =         1.966867	     112.693172
	 B(3,1,4)         =         1.890122	     108.296017
	 B(3,1,5)         =         1.919682	     109.989675
	 B(4,1,5)         =         1.920063	     110.011513
	 D(2,1,5,6)       =         0.000627	       0.035928
	 D(3,1,5,6)       =        -2.100497	    -120.349636
	 D(4,1,5,6)       =         2.102096	     120.441205

	Current energy   :      -115.5155330339

	Energy change for the previous step:
		Projected    :        -0.0000446338
		Actual       :        -0.0004848337

	Performing Bofill update.
	Previous computed or guess Hessian on step 1.
	Steps to be used in Hessian update: 1
	Taking PRFO optimization step.
	Maximizing along 1 lowest eigenvalue of Hessian.

 RFO min eigenvalues
 -0.000041 -0.000000  0.000000  0.004426  0.096620  0.099239  0.134199  0.159997
  0.159999  0.171188  0.353159  0.354910  0.357996  0.409770  0.583348

 RFO max eigenvalues
 -0.000000  0.000000
	Norm of target step-size    0.01635

	Back-transformation to cartesian coordinates...
	Could not converge backtransformation.
	Using first guess instead.

	--- Internal Coordinate Step in ANG or DEG, aJ/ANG or AJ/DEG ---
	 ---------------------------------------------------------------------------
	   Coordinate                Previous        Force       Change         New 
	   ----------                --------       ------       ------       ------
	    1 R(1,2)          =      1.089675    -0.001529    -0.000276     1.089399
	    2 R(1,3)          =      1.089278    -0.000914    -0.000125     1.089153
	    3 R(1,4)          =      1.089307    -0.001151    -0.000178     1.089129
	    4 R(1,5)          =      1.417020     0.018574     0.003506     1.420526
	    5 R(5,6)          =      0.956223     0.006103     0.001076     0.957300
	    6 B(1,5,6)        =    108.399838    -0.000098    -0.637457   107.762381
	    7 B(2,1,3)        =    107.858019     0.000035     0.189296   108.047316
	    8 B(2,1,4)        =    107.861526     0.000035     0.181986   108.043512
	    9 B(2,1,5)        =    112.693172    -0.000047    -0.275442   112.417730
	   10 B(3,1,4)        =    108.296017     0.000035     0.218219   108.514236
	   11 B(3,1,5)        =    109.989675    -0.000023    -0.120703   109.868972
	   12 B(4,1,5)        =    110.011513    -0.000030    -0.164586   109.846927
	   13 D(2,1,5,6)      =      0.035928     0.000000     0.064873     0.100801
	   14 D(3,1,5,6)      =   -120.349636     0.000001     0.091019  -120.258617
	   15 D(4,1,5,6)      =    120.441205    -0.000001    -0.001007   120.440198
	 ---------------------------------------------------------------------------
	Successfully symmetrized geometry.

  ==> Convergence Check <==

  Measures of convergence in internal coordinates in au.
  Criteria marked as inactive (o), active & met (*), and active & unmet ( ).
  ---------------------------------------------------------------------------------------------
   Step     Total Energy     Delta E     MAX Force     RMS Force      MAX Disp      RMS Disp   
  ---------------------------------------------------------------------------------------------
    Convergence Criteria             o    1.50e-05 *    1.00e-05 *    6.00e-05 *    4.00e-05 *
  ---------------------------------------------------------------------------------------------
      2    -115.51553303   -4.85e-04 o    2.25e-03      7.59e-04      1.11e-02      4.06e-03    ~
  ---------------------------------------------------------------------------------------------

	Writing optimization data to binary file.
	Structure for next step:
	Cartesian Geometry (in Angstrom)
	    C    -0.7268842763   0.0158885978   0.0057301338
	    H    -1.0793090673   1.0464235655  -0.0184535779
	    H    -1.1205924809  -0.4543260918   0.9058119126
	    H    -1.1356279860  -0.5008613253  -0.8615073011
	    O     0.6908736466  -0.0721694605  -0.0043362064
	    H     1.0386831852   0.8193600882  -0.0293601669
			--------------------------
			 OPTKING Finished Execution 
			--------------------------

    Structure for next step:
    Molecular point group: c1
    Full point group: C1

    Geometry (in Angstrom), charge = 0, multiplicity = 1:

    C           -0.727291268808     0.017323656698     0.005859160557
    H           -1.079716059844     1.047858624421    -0.018324551160
    H           -1.120999473418    -0.452891032934     0.905940939304
    H           -1.136034978495    -0.499426266419    -0.861378274385
    O            0.690466654105    -0.070734401637    -0.004207179680
    H            1.038276192658     0.820795147133    -0.029231140142

gradient() will perform analytic gradient computation.

*** tstart() called on wr30
*** at Tue Apr  4 09:48:10 2017

    SCF Algorithm Type (re)set to DF.

         ---------------------------------------------------------
                                   SCF
            by Justin Turney, Rob Parrish, and Andy Simmonett
                              RHF Reference
                       16 Threads, 110000 MiB Core
         ---------------------------------------------------------

  ==> Geometry <==

    Molecular point group: c1
    Full point group: C1

    Geometry (in Angstrom), charge = 0, multiplicity = 1:

       Center              X                  Y                   Z               Mass       
    ------------   -----------------  -----------------  -----------------  -----------------
           C         -0.727291268808     0.017323656698     0.005859160557    12.000000000000
           H         -1.079716059844     1.047858624421    -0.018324551160     1.007825032070
           H         -1.120999473418    -0.452891032934     0.905940939304     1.007825032070
           H         -1.136034978495    -0.499426266419    -0.861378274385     1.007825032070
           O          0.690466654105    -0.070734401637    -0.004207179680    15.994914619560
           H          1.038276192658     0.820795147133    -0.029231140142     1.007825032070

  Running in c1 symmetry.

  Rotational constants: A =      4.32040  B =      0.82721  C =      0.79779 [cm^-1]
  Rotational constants: A = 129522.37743  B =  24799.23434  C =  23917.13856 [MHz]
  Nuclear repulsion =   40.354446408766073

  Charge       = 0
  Multiplicity = 1
  Electrons    = 18
  Nalpha       = 9
  Nbeta        = 9

  ==> Algorithm <==

  SCF Algorithm Type is DF.
  DIIS enabled.
  MOM disabled.
  Fractional occupation disabled.
  Guess Type is READ.
  Energy threshold   = 1.00e-10
  Density threshold  = 1.00e-10
  Integral threshold = 0.00e+00

  ==> Primary Basis <==

  Basis Set: file /usr/local/hpc5/psi4conda/envs/p4env/share/psi4/basis/cc-pvtz.gbs
    Number of shells: 44
    Number of basis function: 116
    Number of Cartesian functions: 130
    Spherical Harmonics?: true
    Max angular momentum: 3

  Reading orbitals from file 180, no projection.

  ==> Pre-Iterations <==

   -------------------------------------------------------
    Irrep   Nso     Nmo     Nalpha   Nbeta   Ndocc  Nsocc
   -------------------------------------------------------
     A        116     116       0       0       0       0
   -------------------------------------------------------
    Total     116     116       9       9       9       0
   -------------------------------------------------------

  ==> Integral Setup <==

  ==> DFJK: Density-Fitted J/K Matrices <==

    J tasked:                  Yes
    K tasked:                  Yes
    wK tasked:                  No
    OpenMP threads:             16
    Integrals threads:          16
    Memory (MB):             78678
    Algorithm:                Core
    Integral Cache:           NONE
    Schwarz Cutoff:          1E-12
    Fitting Condition:       1E-12

   => Auxiliary Basis Set <=

  Basis Set: file /usr/local/hpc5/psi4conda/envs/p4env/share/psi4/basis/cc-pvtz-jkfit.gbs
    Number of shells: 90
    Number of basis function: 278
    Number of Cartesian functions: 332
    Spherical Harmonics?: true
    Max angular momentum: 4

  Minimum eigenvalue in the overlap matrix is 1.8187869653E-03.
  Using Symmetric Orthogonalization.

  SCF Guess: Orbitals guess was supplied from a previous computation.

  ==> Iterations <==

                           Total Energy        Delta E     RMS |[F,P]|

   @DF-RHF iter   0:  -115.08527190097413   -1.15085e+02   9.39761e-05 
   @DF-RHF iter   1:  -115.08753482859879   -2.26293e-03   1.43801e-05 
   @DF-RHF iter   2:  -115.08753653145025   -1.70285e-06   7.16583e-06 DIIS
   @DF-RHF iter   3:  -115.08753681269199   -2.81242e-07   2.40466e-06 DIIS
   @DF-RHF iter   4:  -115.08753687786394   -6.51719e-08   5.42035e-07 DIIS
   @DF-RHF iter   5:  -115.08753688279893   -4.93499e-09   1.54585e-07 DIIS
   @DF-RHF iter   6:  -115.08753688315822   -3.59293e-10   4.53466e-08 DIIS
   @DF-RHF iter   7:  -115.08753688318681   -2.85922e-11   1.00488e-08 DIIS
   @DF-RHF iter   8:  -115.08753688318832   -1.50635e-12   2.40875e-09 DIIS
   @DF-RHF iter   9:  -115.08753688318842   -9.94760e-14   5.73065e-10 DIIS
   @DF-RHF iter  10:  -115.08753688318853   -1.13687e-13   1.23482e-10 DIIS
   @DF-RHF iter  11:  -115.08753688318826    2.70006e-13   3.42379e-11 DIIS

  ==> Post-Iterations <==

    Orbital Energies (a.u.)
    -----------------------

    Doubly Occupied:                                                      

       1A    -20.550746     2A    -11.268359     3A     -1.353756  
       4A     -0.924243     5A     -0.689298     6A     -0.617154  
       7A     -0.592285     8A     -0.501822     9A     -0.447067  

    Virtual:                                                              

      10A      0.136974    11A      0.177491    12A      0.222554  
      13A      0.226621    14A      0.294879    15A      0.386741  
      16A      0.390976    17A      0.552961    18A      0.583473  
      19A      0.625154    20A      0.625421    21A      0.655646  
      22A      0.682606    23A      0.705727    24A      0.725319  
      25A      0.808102    26A      0.848418    27A      0.863800  
      28A      0.944728    29A      1.071221    30A      1.116418  
      31A      1.175215    32A      1.183047    33A      1.234364  
      34A      1.276723    35A      1.283206    36A      1.326710  
      37A      1.463037    38A      1.510568    39A      1.518411  
      40A      1.526253    41A      1.577124    42A      1.628486  
      43A      1.780057    44A      2.101289    45A      2.185500  
      46A      2.209224    47A      2.233045    48A      2.364542  
      49A      2.494704    50A      2.497201    51A      2.536382  
      52A      2.823096    53A      2.961550    54A      3.029780  
      55A      3.071072    56A      3.114200    57A      3.184915  
      58A      3.188121    59A      3.289808    60A      3.306381  
      61A      3.337466    62A      3.357181    63A      3.478236  
      64A      3.483882    65A      3.580223    66A      3.620862  
      67A      3.684353    68A      3.713096    69A      3.731257  
      70A      3.754779    71A      3.825631    72A      3.867474  
      73A      3.921288    74A      4.004270    75A      4.035458  
      76A      4.108508    77A      4.111485    78A      4.162456  
      79A      4.254471    80A      4.314073    81A      4.336931  
      82A      4.366575    83A      4.400826    84A      4.429005  
      85A      4.547431    86A      4.584464    87A      4.704831  
      88A      4.764461    89A      4.997642    90A      5.025866  
      91A      5.039782    92A      5.223624    93A      5.314818  
      94A      5.331801    95A      5.342694    96A      5.432913  
      97A      5.533696    98A      5.549061    99A      5.648582  
     100A      5.788220   101A      6.032419   102A      6.109678  
     103A      6.224192   104A      6.262223   105A      6.413943  
     106A      6.642940   107A      7.019959   108A      7.123029  
     109A      7.151541   110A      7.275434   111A      7.360260  
     112A      7.481210   113A      7.608771   114A      7.895993  
     115A     12.096979   116A     13.739547  

    Final Occupation by Irrep:
              A 
    DOCC [     9 ]

  Energy converged.

  @DF-RHF Final Energy:  -115.08753688318826

   => Energetics <=

    Nuclear Repulsion Energy =             40.3544464087660728
    One-Electron Energy =                -236.9945082512983845
    Two-Electron Energy =                  81.5525249593440407
    DFT Exchange-Correlation Energy =       0.0000000000000000
    Empirical Dispersion Energy =           0.0000000000000000
    PCM Polarization Energy =               0.0000000000000000
    EFP Energy =                            0.0000000000000000
    Total Energy =                       -115.0875368831882639



Properties will be evaluated at   0.000000,   0.000000,   0.000000 Bohr

Properties computed using the SCF density matrix

  Nuclear Dipole Moment: (a.u.)
     X:    -2.1514      Y:     0.8587      Z:    -0.0028

  Electronic Dipole Moment: (a.u.)
     X:     1.7707      Y:    -0.2340      Z:    -0.0094

  Dipole Moment: (a.u.)
     X:    -0.3807      Y:     0.6247      Z:    -0.0122     Total:     0.7317

  Dipole Moment: (Debye)
     X:    -0.9677      Y:     1.5879      Z:    -0.0311     Total:     1.8598


  //>>>>>>>>>>>>>>>>>>>>>>>>>>>>>>>>>>>//
  //               DFMP2               //
  //<<<<<<<<<<<<<<<<<<<<<<<<<<<<<<<<<<<//

	 --------------------------------------------------------
	                          DF-MP2                         
	      2nd-Order Density-Fitted Moller-Plesset Theory     
	              RMP2 Wavefunction,  16 Threads             
	                                                         
	        Rob Parrish, Justin Turney, Andy Simmonett,      
	           Ed Hohenstein, and C. David Sherrill          
	 --------------------------------------------------------

   => Auxiliary Basis Set <=

  Basis Set: file /usr/local/hpc5/psi4conda/envs/p4env/share/psi4/basis/cc-pvtz-ri.gbs
    Number of shells: 86
    Number of basis function: 282
    Number of Cartesian functions: 342
    Spherical Harmonics?: true
    Max angular momentum: 4

	 --------------------------------------------------------
	                 NBF =   116, NAUX =   282
	 --------------------------------------------------------
	   CLASS    FOCC     OCC    AOCC    AVIR     VIR    FVIR
	   PAIRS       2       9       7     107     107       0
	 --------------------------------------------------------


         ------------------------------------------------------------
                                     CPHF                           
                                  Rob Parrish                       
         ------------------------------------------------------------

  ==> Geometry <==

    Molecular point group: c1
    Full point group: C1

    Geometry (in Angstrom), charge = 0, multiplicity = 1:

       Center              X                  Y                   Z               Mass       
    ------------   -----------------  -----------------  -----------------  -----------------
           C         -0.727291268808     0.017323656698     0.005859160557    12.000000000000
           H         -1.079716059844     1.047858624421    -0.018324551160     1.007825032070
           H         -1.120999473418    -0.452891032934     0.905940939304     1.007825032070
           H         -1.136034978495    -0.499426266419    -0.861378274385     1.007825032070
           O          0.690466654105    -0.070734401637    -0.004207179680    15.994914619560
           H          1.038276192658     0.820795147133    -0.029231140142     1.007825032070

  Nuclear repulsion =   40.354446408766066
  Reference energy  = -115.087536883188264

  ==> Basis Set <==

  Basis Set: file /usr/local/hpc5/psi4conda/envs/p4env/share/psi4/basis/cc-pvtz.gbs
    Number of shells: 44
    Number of basis function: 116
    Number of Cartesian functions: 130
    Spherical Harmonics?: true
    Max angular momentum: 3

  ==> CGRSolver (by Rob Parrish) <==

   Number of roots    =         1
   Preconditioning    =    JACOBI
   Convergence cutoff =     1E-06
   Maximum iterations =       100

  ==> CPHFRHamiltonian (by Rob Parrish) <== 

  ==> DFJK: Density-Fitted J/K Matrices <==

    J tasked:                  Yes
    K tasked:                  Yes
    wK tasked:                  No
    OpenMP threads:             16
    Integrals threads:          16
    Memory (MB):             78678
    Algorithm:                Core
    Integral Cache:           NONE
    Schwarz Cutoff:          1E-12
    Fitting Condition:       1E-12

   => Auxiliary Basis Set <=

  Basis Set: file /usr/local/hpc5/psi4conda/envs/p4env/share/psi4/basis/cc-pvtz-jkfit.gbs
    Number of shells: 90
    Number of basis function: 278
    Number of Cartesian functions: 332
    Spherical Harmonics?: true
    Max angular momentum: 4

  ==> CPHF Iterations <==

  => Iterations <=

             Iter  Converged  Remaining    Residual
  CGR           1          0          1   5.701E-02
  CGR           2          0          1   1.189E-02
  CGR           3          0          1   3.764E-03
  CGR           4          0          1   1.164E-03
  CGR           5          0          1   2.509E-04
  CGR           6          0          1   5.135E-05
  CGR           7          0          1   8.089E-06
  CGR           8          0          1   2.028E-06
  CGR           9          1          0   4.389E-07

    CGRSolver converged.

  ==> DFCorrGrad: Density-Fitted Correlated Gradients <==

    OpenMP threads:             16
    Integrals threads:          16
    Memory (MB):             78678
    Schwarz Cutoff:          0E+00
    Fitting Condition:       1E-12

   => Auxiliary Basis Set <=

  Basis Set: file /usr/local/hpc5/psi4conda/envs/p4env/share/psi4/basis/cc-pvtz-jkfit.gbs
    Number of shells: 90
    Number of basis function: 278
    Number of Cartesian functions: 332
    Spherical Harmonics?: true
    Max angular momentum: 4

	-----------------------------------------------------------
	 ==================> DF-MP2 Energies <==================== 
	-----------------------------------------------------------
	 Reference Energy          =    -115.0875368831882639 [Eh]
	 Singles Energy            =      -0.0000000000000000 [Eh]
	 Same-Spin Energy          =      -0.0982132256757041 [Eh]
	 Opposite-Spin Energy      =      -0.3298051723723772 [Eh]
	 Correlation Energy        =      -0.4280183980480813 [Eh]
	 Total Energy              =    -115.5155552812363453 [Eh]
	-----------------------------------------------------------
	 ================> DF-SCS-MP2 Energies <================== 
	-----------------------------------------------------------
	 SCS Same-Spin Scale       =       0.3333333333333333 [-]
	 SCS Opposite-Spin Scale   =       1.2000000000000000 [-]
	 SCS Same-Spin Energy      =      -0.0327377418919014 [Eh]
	 SCS Opposite-Spin Energy  =      -0.3957662068468526 [Eh]
	 SCS Correlation Energy    =      -0.4285039487387540 [Eh]
	 SCS Total Energy          =    -115.5160408319270147 [Eh]
	-----------------------------------------------------------


  -Total Gradient:
     Atom            X                  Y                   Z
    ------   -----------------  -----------------  -----------------
       1        0.001434570846     0.000036106475    -0.000003062344
       2       -0.000116349917     0.000107231065    -0.000001944068
       3       -0.000133358632    -0.000038804649     0.000133443675
       4       -0.000120808175    -0.000038409557    -0.000131588982
       5       -0.000948888964    -0.000344501845     0.000018272968
       6       -0.000115165158     0.000278378512    -0.000015121249


*** tstop() called on wr30 at Tue Apr  4 09:48:15 2017
Module time:
	user time   =      54.69 seconds =       0.91 minutes
	system time =       1.84 seconds =       0.03 minutes
	total time  =          5 seconds =       0.08 minutes
Total time:
	user time   =     180.48 seconds =       3.01 minutes
	system time =       6.13 seconds =       0.10 minutes
	total time  =         18 seconds =       0.30 minutes

			-----------------------------------------
			 OPTKING 2.0: for geometry optimizations 
			  - R.A. King,  Bethel University        
			-----------------------------------------

	Previous internal coordinate definitions found.
	---Fragment 1 Geometry and Gradient---
	 C          -1.3743813169        0.0327369668        0.0110722088
	 H          -2.0403676544        1.9801658261       -0.0346283832
	 H          -2.1183819999       -0.8558400203        1.7119802679
	 H          -2.1467949867       -0.9437788671       -1.6277690354
	 O           1.3047928801       -0.1336686473       -0.0079504174
	 H           1.9620576544        1.5510780393       -0.0552388494
	             0.0014345708        0.0000361065       -0.0000030623
	            -0.0001163499        0.0001072311       -0.0000019441
	            -0.0001333586       -0.0000388046        0.0001334437
	            -0.0001208082       -0.0000384096       -0.0001315890
	            -0.0009488890       -0.0003445018        0.0000182730
	            -0.0001151652        0.0002783785       -0.0000151212

	---Fragment 1 Intrafragment Coordinates---
	 - Coordinate -           - BOHR/RAD -       - ANG/DEG -
	 R(1,2)           =         2.058666	       1.089399
	 R(1,3)           =         2.058202	       1.089153
	 R(1,4)           =         2.058156	       1.089129
	 R(1,5)           =         2.684404	       1.420526
	 R(5,6)           =         1.809034	       0.957300
	 B(1,5,6)         =         1.880808	     107.762381
	 B(2,1,3)         =         1.885781	     108.047316
	 B(2,1,4)         =         1.885715	     108.043512
	 B(2,1,5)         =         1.962060	     112.417730
	 B(3,1,4)         =         1.893931	     108.514236
	 B(3,1,5)         =         1.917575	     109.868972
	 B(4,1,5)         =         1.917191	     109.846927
	 D(2,1,5,6)       =         0.001759	       0.100801
	 D(3,1,5,6)       =        -2.098909	    -120.258617
	 D(4,1,5,6)       =         2.102078	     120.440198

	Current energy   :      -115.5155552812

	Energy change for the previous step:
		Projected    :        -0.0000006573
		Actual       :        -0.0000222473

	Performing Bofill update.
	Previous computed or guess Hessian on step 1.
	Steps to be used in Hessian update: 2 1
	Taking PRFO optimization step.
	Maximizing along 1 lowest eigenvalue of Hessian.

 RFO min eigenvalues
 -0.000005  0.000000  0.000000  0.004336  0.096651  0.099841  0.140343  0.159997
  0.160237  0.161405  0.348980  0.353593  0.354914  0.394414  0.579449

 RFO max eigenvalues
 -0.000000  0.000000
	Change in coordinate exceeds step limit of    0.50000.
	Scaling displacements by    0.04903
	Norm of target step-size    0.50000

	Back-transformation to cartesian coordinates...
	Could not converge backtransformation.
	Using first guess instead.

	--- Internal Coordinate Step in ANG or DEG, aJ/ANG or AJ/DEG ---
	 ---------------------------------------------------------------------------
	   Coordinate                Previous        Force       Change         New 
	   ----------                --------       ------       ------       ------
	    1 R(1,2)          =      1.089399    -0.001146    -0.000013     1.089386
	    2 R(1,3)          =      1.089153    -0.001444    -0.000016     1.089138
	    3 R(1,4)          =      1.089129    -0.001387    -0.000015     1.089114
	    4 R(1,5)          =      1.420526     0.008716     0.000080     1.420605
	    5 R(5,6)          =      0.957300    -0.001794    -0.000009     0.957291
	    6 B(1,5,6)        =    107.762381     0.000029     0.004573   107.766954
	    7 B(2,1,3)        =    108.047316     0.000007     0.002879   108.050195
	    8 B(2,1,4)        =    108.043512     0.000007     0.002905   108.046416
	    9 B(2,1,5)        =    112.417730    -0.000005    -0.002740   112.414990
	   10 B(3,1,4)        =    108.514236     0.000003     0.001945   108.516181
	   11 B(3,1,5)        =    109.868972    -0.000007    -0.002503   109.866470
	   12 B(4,1,5)        =    109.846927    -0.000005    -0.002169   109.844758
	   13 D(2,1,5,6)      =      0.100801    -0.000000     0.011790     0.112591
	   14 D(3,1,5,6)      =   -120.258617    -0.000000     0.011677  -120.246941
	   15 D(4,1,5,6)      =    120.440198     0.000000     0.012167   120.452366
	 ---------------------------------------------------------------------------
	Successfully symmetrized geometry.

  ==> Convergence Check <==

  Measures of convergence in internal coordinates in au.
  Criteria marked as inactive (o), active & met (*), and active & unmet ( ).
  ---------------------------------------------------------------------------------------------
   Step     Total Energy     Delta E     MAX Force     RMS Force      MAX Disp      RMS Disp   
  ---------------------------------------------------------------------------------------------
    Convergence Criteria             o    1.50e-05 *    1.00e-05 *    6.00e-05 *    4.00e-05 *
  ---------------------------------------------------------------------------------------------
      3    -115.51555528   -2.22e-05 o    1.06e-03      3.08e-04      2.12e-04      1.07e-04    ~
  ---------------------------------------------------------------------------------------------

	Writing optimization data to binary file.
	Structure for next step:
	Cartesian Geometry (in Angstrom)
	    C    -0.7273513995   0.0173261328   0.0058428863
	    H    -1.0797420317   1.0478590211  -0.0183515891
	    H    -1.1209682509  -0.4528809678   0.9059498178
	    H    -1.1360743943  -0.4994589330  -0.8613644466
	    O     0.6904873590  -0.0707118172  -0.0042743451
	    H     1.0383497836   0.8207922913  -0.0291433689
			--------------------------
			 OPTKING Finished Execution 
			--------------------------

    Structure for next step:
    Molecular point group: c1
    Full point group: C1

    Geometry (in Angstrom), charge = 0, multiplicity = 1:

    C           -0.727340450355     0.017314714284     0.005879902978
    H           -1.079731082522     1.047847602565    -0.018314572385
    H           -1.120957301667    -0.452892386376     0.905986834510
    H           -1.136063445087    -0.499470351540    -0.861327429952
    O            0.690498308212    -0.070723235760    -0.004237328448
    H            1.038360732778     0.820780872766    -0.029106352193

gradient() will perform analytic gradient computation.

*** tstart() called on wr30
*** at Tue Apr  4 09:48:15 2017

    SCF Algorithm Type (re)set to DF.

         ---------------------------------------------------------
                                   SCF
            by Justin Turney, Rob Parrish, and Andy Simmonett
                              RHF Reference
                       16 Threads, 110000 MiB Core
         ---------------------------------------------------------

  ==> Geometry <==

    Molecular point group: c1
    Full point group: C1

    Geometry (in Angstrom), charge = 0, multiplicity = 1:

       Center              X                  Y                   Z               Mass       
    ------------   -----------------  -----------------  -----------------  -----------------
           C         -0.727340450355     0.017314714284     0.005879902978    12.000000000000
           H         -1.079731082522     1.047847602565    -0.018314572385     1.007825032070
           H         -1.120957301667    -0.452892386376     0.905986834510     1.007825032070
           H         -1.136063445087    -0.499470351540    -0.861327429952     1.007825032070
           O          0.690498308212    -0.070723235760    -0.004237328448    15.994914619560
           H          1.038360732778     0.820780872766    -0.029106352193     1.007825032070

  Running in c1 symmetry.

  Rotational constants: A =      4.32044  B =      0.82714  C =      0.79773 [cm^-1]
  Rotational constants: A = 129523.66573  B =  24797.12334  C =  23915.20604 [MHz]
  Nuclear repulsion =   40.353390584725204

  Charge       = 0
  Multiplicity = 1
  Electrons    = 18
  Nalpha       = 9
  Nbeta        = 9

  ==> Algorithm <==

  SCF Algorithm Type is DF.
  DIIS enabled.
  MOM disabled.
  Fractional occupation disabled.
  Guess Type is READ.
  Energy threshold   = 1.00e-10
  Density threshold  = 1.00e-10
  Integral threshold = 0.00e+00

  ==> Primary Basis <==

  Basis Set: file /usr/local/hpc5/psi4conda/envs/p4env/share/psi4/basis/cc-pvtz.gbs
    Number of shells: 44
    Number of basis function: 116
    Number of Cartesian functions: 130
    Spherical Harmonics?: true
    Max angular momentum: 3

  Reading orbitals from file 180, no projection.

  ==> Pre-Iterations <==

   -------------------------------------------------------
    Irrep   Nso     Nmo     Nalpha   Nbeta   Ndocc  Nsocc
   -------------------------------------------------------
     A        116     116       0       0       0       0
   -------------------------------------------------------
    Total     116     116       9       9       9       0
   -------------------------------------------------------

  ==> Integral Setup <==

  ==> DFJK: Density-Fitted J/K Matrices <==

    J tasked:                  Yes
    K tasked:                  Yes
    wK tasked:                  No
    OpenMP threads:             16
    Integrals threads:          16
    Memory (MB):             78678
    Algorithm:                Core
    Integral Cache:           NONE
    Schwarz Cutoff:          1E-12
    Fitting Condition:       1E-12

   => Auxiliary Basis Set <=

  Basis Set: file /usr/local/hpc5/psi4conda/envs/p4env/share/psi4/basis/cc-pvtz-jkfit.gbs
    Number of shells: 90
    Number of basis function: 278
    Number of Cartesian functions: 332
    Spherical Harmonics?: true
    Max angular momentum: 4

  Minimum eigenvalue in the overlap matrix is 1.8187909102E-03.
  Using Symmetric Orthogonalization.

  SCF Guess: Orbitals guess was supplied from a previous computation.

  ==> Iterations <==

                           Total Energy        Delta E     RMS |[F,P]|

   @DF-RHF iter   0:  -115.08751408240515   -1.15088e+02   2.00584e-06 
   @DF-RHF iter   1:  -115.08753657944843   -2.24970e-05   3.47401e-07 
   @DF-RHF iter   2:  -115.08753658030187   -8.53447e-10   1.72118e-07 DIIS
   @DF-RHF iter   3:  -115.08753658047141   -1.69535e-10   6.05012e-08 DIIS
   @DF-RHF iter   4:  -115.08753658051761   -4.61995e-11   1.70149e-08 DIIS
   @DF-RHF iter   5:  -115.08753658052370   -6.09646e-12   4.66363e-09 DIIS
   @DF-RHF iter   6:  -115.08753658052430   -5.96856e-13   1.12553e-09 DIIS
   @DF-RHF iter   7:  -115.08753658052420    9.94760e-14   3.27993e-10 DIIS
   @DF-RHF iter   8:  -115.08753658052430   -9.94760e-14   6.10905e-11 DIIS

  ==> Post-Iterations <==

    Orbital Energies (a.u.)
    -----------------------

    Doubly Occupied:                                                      

       1A    -20.550738     2A    -11.268362     3A     -1.353723  
       4A     -0.924252     5A     -0.689279     6A     -0.617146  
       7A     -0.592270     8A     -0.501826     9A     -0.447074  

    Virtual:                                                              

      10A      0.136977    11A      0.177491    12A      0.222551  
      13A      0.226618    14A      0.294867    15A      0.386739  
      16A      0.390976    17A      0.552949    18A      0.583456  
      19A      0.625164    20A      0.625426    21A      0.655647  
      22A      0.682605    23A      0.705724    24A      0.725323  
      25A      0.808122    26A      0.848420    27A      0.863802  
      28A      0.944751    29A      1.071214    30A      1.116405  
      31A      1.175202    32A      1.183037    33A      1.234349  
      34A      1.276723    35A      1.283202    36A      1.326690  
      37A      1.463021    38A      1.510584    39A      1.518415  
      40A      1.526258    41A      1.577114    42A      1.628502  
      43A      1.780076    44A      2.101279    45A      2.185441  
      46A      2.209194    47A      2.233022    48A      2.364516  
      49A      2.494702    50A      2.497212    51A      2.536376  
      52A      2.823139    53A      2.961521    54A      3.029759  
      55A      3.071028    56A      3.114214    57A      3.184905  
      58A      3.188093    59A      3.289836    60A      3.306408  
      61A      3.337409    62A      3.357142    63A      3.478211  
      64A      3.483855    65A      3.580248    66A      3.620840  
      67A      3.684362    68A      3.713091    69A      3.731262  
      70A      3.754781    71A      3.825610    72A      3.867405  
      73A      3.921315    74A      4.004335    75A      4.035506  
      76A      4.108497    77A      4.111484    78A      4.162461  
      79A      4.254500    80A      4.314044    81A      4.336919  
      82A      4.366546    83A      4.400810    84A      4.429006  
      85A      4.547446    86A      4.584411    87A      4.704792  
      88A      4.764500    89A      4.997670    90A      5.025892  
      91A      5.039815    92A      5.223641    93A      5.314844  
      94A      5.331791    95A      5.342647    96A      5.433073  
      97A      5.533718    98A      5.549061    99A      5.648567  
     100A      5.788177   101A      6.032395   102A      6.109599  
     103A      6.224083   104A      6.262143   105A      6.413821  
     106A      6.642913   107A      7.019973   108A      7.123044  
     109A      7.151576   110A      7.275386   111A      7.360203  
     112A      7.481068   113A      7.608790   114A      7.895986  
     115A     12.096770   116A     13.739515  

    Final Occupation by Irrep:
              A 
    DOCC [     9 ]

  Energy converged.

  @DF-RHF Final Energy:  -115.08753658052430

   => Energetics <=

    Nuclear Repulsion Energy =             40.3533905847252043
    One-Electron Energy =                -236.9925149476507045
    Two-Electron Energy =                  81.5515877824011852
    DFT Exchange-Correlation Energy =       0.0000000000000000
    Empirical Dispersion Energy =           0.0000000000000000
    PCM Polarization Energy =               0.0000000000000000
    EFP Energy =                            0.0000000000000000
    Total Energy =                       -115.0875365805243007



Properties will be evaluated at   0.000000,   0.000000,   0.000000 Bohr

Properties computed using the SCF density matrix

  Nuclear Dipole Moment: (a.u.)
     X:    -2.1514      Y:     0.8586      Z:    -0.0026

  Electronic Dipole Moment: (a.u.)
     X:     1.7705      Y:    -0.2339      Z:    -0.0095

  Dipole Moment: (a.u.)
     X:    -0.3808      Y:     0.6247      Z:    -0.0121     Total:     0.7317

  Dipole Moment: (Debye)
     X:    -0.9680      Y:     1.5879      Z:    -0.0308     Total:     1.8599


  //>>>>>>>>>>>>>>>>>>>>>>>>>>>>>>>>>>>//
  //               DFMP2               //
  //<<<<<<<<<<<<<<<<<<<<<<<<<<<<<<<<<<<//

	 --------------------------------------------------------
	                          DF-MP2                         
	      2nd-Order Density-Fitted Moller-Plesset Theory     
	              RMP2 Wavefunction,  16 Threads             
	                                                         
	        Rob Parrish, Justin Turney, Andy Simmonett,      
	           Ed Hohenstein, and C. David Sherrill          
	 --------------------------------------------------------

   => Auxiliary Basis Set <=

  Basis Set: file /usr/local/hpc5/psi4conda/envs/p4env/share/psi4/basis/cc-pvtz-ri.gbs
    Number of shells: 86
    Number of basis function: 282
    Number of Cartesian functions: 342
    Spherical Harmonics?: true
    Max angular momentum: 4

	 --------------------------------------------------------
	                 NBF =   116, NAUX =   282
	 --------------------------------------------------------
	   CLASS    FOCC     OCC    AOCC    AVIR     VIR    FVIR
	   PAIRS       2       9       7     107     107       0
	 --------------------------------------------------------


         ------------------------------------------------------------
                                     CPHF                           
                                  Rob Parrish                       
         ------------------------------------------------------------

  ==> Geometry <==

    Molecular point group: c1
    Full point group: C1

    Geometry (in Angstrom), charge = 0, multiplicity = 1:

       Center              X                  Y                   Z               Mass       
    ------------   -----------------  -----------------  -----------------  -----------------
           C         -0.727340450355     0.017314714284     0.005879902978    12.000000000000
           H         -1.079731082522     1.047847602565    -0.018314572385     1.007825032070
           H         -1.120957301667    -0.452892386376     0.905986834510     1.007825032070
           H         -1.136063445087    -0.499470351540    -0.861327429952     1.007825032070
           O          0.690498308212    -0.070723235760    -0.004237328448    15.994914619560
           H          1.038360732778     0.820780872766    -0.029106352193     1.007825032070

  Nuclear repulsion =   40.353390584725204
  Reference energy  = -115.087536580524301

  ==> Basis Set <==

  Basis Set: file /usr/local/hpc5/psi4conda/envs/p4env/share/psi4/basis/cc-pvtz.gbs
    Number of shells: 44
    Number of basis function: 116
    Number of Cartesian functions: 130
    Spherical Harmonics?: true
    Max angular momentum: 3

  ==> CGRSolver (by Rob Parrish) <==

   Number of roots    =         1
   Preconditioning    =    JACOBI
   Convergence cutoff =     1E-06
   Maximum iterations =       100

  ==> CPHFRHamiltonian (by Rob Parrish) <== 

  ==> DFJK: Density-Fitted J/K Matrices <==

    J tasked:                  Yes
    K tasked:                  Yes
    wK tasked:                  No
    OpenMP threads:             16
    Integrals threads:          16
    Memory (MB):             78678
    Algorithm:                Core
    Integral Cache:           NONE
    Schwarz Cutoff:          1E-12
    Fitting Condition:       1E-12

   => Auxiliary Basis Set <=

  Basis Set: file /usr/local/hpc5/psi4conda/envs/p4env/share/psi4/basis/cc-pvtz-jkfit.gbs
    Number of shells: 90
    Number of basis function: 278
    Number of Cartesian functions: 332
    Spherical Harmonics?: true
    Max angular momentum: 4

  ==> CPHF Iterations <==

  => Iterations <=

             Iter  Converged  Remaining    Residual
  CGR           1          0          1   5.700E-02
  CGR           2          0          1   1.188E-02
  CGR           3          0          1   3.766E-03
  CGR           4          0          1   1.165E-03
  CGR           5          0          1   2.509E-04
  CGR           6          0          1   5.136E-05
  CGR           7          0          1   8.093E-06
  CGR           8          0          1   2.030E-06
  CGR           9          1          0   4.393E-07

[...]
   @DF-RHF iter   6:  -115.08752614349629    1.98952e-13   1.92356e-10 DIIS
   @DF-RHF iter   7:  -115.08752614349645   -1.56319e-13   3.65906e-11 DIIS

  ==> Post-Iterations <==

    Orbital Energies (a.u.)
    -----------------------

    Doubly Occupied:                                                      

       1A    -20.550570     2A    -11.268411     3A     -1.353064  
       4A     -0.924424     5A     -0.688893     6A     -0.617017  
       7A     -0.591906     8A     -0.501976     9A     -0.447202  

    Virtual:                                                              

      10A      0.137027    11A      0.177523    12A      0.222465  
      13A      0.226557    14A      0.294626    15A      0.386643  
      16A      0.390957    17A      0.552635    18A      0.583208  
      19A      0.625402    20A      0.625520    21A      0.655676  
      22A      0.682604    23A      0.705635    24A      0.725441  
      25A      0.808482    26A      0.848494    27A      0.863876  
      28A      0.945164    29A      1.071024    30A      1.116154  
      31A      1.174896    32A      1.182746    33A      1.234126  
      34A      1.276708    35A      1.283221    36A      1.326252  
      37A      1.462737    38A      1.511046    39A      1.518496  
      40A      1.526408    41A      1.577002    42A      1.628772  
      43A      1.780487    44A      2.101076    45A      2.183941  
      46A      2.208454    47A      2.232657    48A      2.363877  
      49A      2.494829    50A      2.497325    51A      2.536239  
      52A      2.824103    53A      2.961067    54A      3.029255  
      55A      3.070041    56A      3.114532    57A      3.184789  
      58A      3.187528    59A      3.290563    60A      3.307013  
      61A      3.336207    62A      3.356388    63A      3.477548  
      64A      3.483357    65A      3.580676    66A      3.620266  
      67A      3.684638    68A      3.712948    69A      3.731387  
      70A      3.754848    71A      3.825245    72A      3.866024  
      73A      3.921831    74A      4.006058    75A      4.036847  
      76A      4.108340    77A      4.111463    78A      4.162553  
      79A      4.254999    80A      4.313697    81A      4.336713  
      82A      4.365960    83A      4.400259    84A      4.428816  
      85A      4.547847    86A      4.583314    87A      4.704162  
      88A      4.765482    89A      4.998256    90A      5.026425  
      91A      5.040575    92A      5.224041    93A      5.315439  
      94A      5.331472    95A      5.342037    96A      5.437164  
      97A      5.534430    98A      5.549026    99A      5.648269  
     100A      5.787397   101A      6.032123   102A      6.108183  
     103A      6.221533   104A      6.260445   105A      6.411153  
     106A      6.642230   107A      7.020261   108A      7.123398  
     109A      7.152145   110A      7.274524   111A      7.359012  
     112A      7.478434   113A      7.609065   114A      7.895809  
     115A     12.092816   116A     13.739642  

    Final Occupation by Irrep:
              A 
    DOCC [     9 ]

  Energy converged.

  @DF-RHF Final Energy:  -115.08752614349645

   => Energetics <=

    Nuclear Repulsion Energy =             40.3325116559001344
    One-Electron Energy =                -236.9531533284240652
    Two-Electron Energy =                  81.5331155290274836
    DFT Exchange-Correlation Energy =       0.0000000000000000
    Empirical Dispersion Energy =           0.0000000000000000
    PCM Polarization Energy =               0.0000000000000000
    EFP Energy =                            0.0000000000000000
    Total Energy =                       -115.0875261434964472

    Alert: EFP and PCM quantities not currently incorporated into SCF psivars.

Properties will be evaluated at   0.000000,   0.000000,   0.000000 Bohr

Properties computed using the SCF density matrix

  Nuclear Dipole Moment: (a.u.)
     X:    -2.1495      Y:     0.8573      Z:    -0.0059

  Electronic Dipole Moment: (a.u.)
     X:     1.7664      Y:    -0.2330      Z:    -0.0068

  Dipole Moment: (a.u.)
     X:    -0.3831      Y:     0.6243      Z:    -0.0127     Total:     0.7326

  Dipole Moment: (Debye)
     X:    -0.9739      Y:     1.5867      Z:    -0.0322     Total:     1.8620


  //>>>>>>>>>>>>>>>>>>>>>>>>>>>>>>>>>>>//
  //               DFMP2               //
  //<<<<<<<<<<<<<<<<<<<<<<<<<<<<<<<<<<<//

	 --------------------------------------------------------
	                          DF-MP2                         
	      2nd-Order Density-Fitted Moller-Plesset Theory     
	              RMP2 Wavefunction,  16 Threads             
	                                                         
	        Rob Parrish, Justin Turney, Andy Simmonett,      
	           Ed Hohenstein, and C. David Sherrill          
	 --------------------------------------------------------

   => Auxiliary Basis Set <=

  Basis Set: file /usr/local/hpc5/psi4conda/envs/p4env/share/psi4/basis/cc-pvtz-ri.gbs
    Number of shells: 86
    Number of basis function: 282
    Number of Cartesian functions: 342
    Spherical Harmonics?: true
    Max angular momentum: 4

	 --------------------------------------------------------
	                 NBF =   116, NAUX =   282
	 --------------------------------------------------------
	   CLASS    FOCC     OCC    AOCC    AVIR     VIR    FVIR
	   PAIRS       2       9       7     107     107       0
	 --------------------------------------------------------


         ------------------------------------------------------------
                                     CPHF                           
                                  Rob Parrish                       
         ------------------------------------------------------------

  ==> Geometry <==

    Molecular point group: c1
    Full point group: C1

    Geometry (in Angstrom), charge = 0, multiplicity = 1:

       Center              X                  Y                   Z               Mass       
    ------------   -----------------  -----------------  -----------------  -----------------
           C         -0.728381839333     0.017256534899     0.004732576046    12.000000000000
           H         -1.079945461294     1.047794235311    -0.018144441704     1.007825032070
           H         -1.121882807536    -0.454924092739     0.903415223900     1.007825032070
           H         -1.134396343725    -0.498427273167    -0.863973648479     1.007825032070
           O          0.691154765295    -0.070590501466    -0.003156050117    15.994914619560
           H          1.039814705921     0.820409010399    -0.027558300286     1.007825032070

  Nuclear repulsion =   40.332511655900134
  Reference energy  = -115.087526143496447

  ==> Basis Set <==

  Basis Set: file /usr/local/hpc5/psi4conda/envs/p4env/share/psi4/basis/cc-pvtz.gbs
    Number of shells: 44
    Number of basis function: 116
    Number of Cartesian functions: 130
    Spherical Harmonics?: true
    Max angular momentum: 3

  ==> CGRSolver (by Rob Parrish) <==

   Number of roots    =         1
   Preconditioning    =    JACOBI
   Convergence cutoff =     1E-06
   Maximum iterations =       100

  ==> CPHFRHamiltonian (by Rob Parrish) <== 

  ==> DFJK: Density-Fitted J/K Matrices <==

    J tasked:                  Yes
    K tasked:                  Yes
    wK tasked:                  No
    OpenMP threads:             16
    Integrals threads:          16
    Memory (MB):             78678
    Algorithm:                Core
    Integral Cache:           NONE
    Schwarz Cutoff:          1E-12
    Fitting Condition:       1E-12

   => Auxiliary Basis Set <=

  Basis Set: file /usr/local/hpc5/psi4conda/envs/p4env/share/psi4/basis/cc-pvtz-jkfit.gbs
    Number of shells: 90
    Number of basis function: 278
    Number of Cartesian functions: 332
    Spherical Harmonics?: true
    Max angular momentum: 4

  ==> CPHF Iterations <==

  => Iterations <=

             Iter  Converged  Remaining    Residual
  CGR           1          0          1   5.695E-02
  CGR           2          0          1   1.188E-02
  CGR           3          0          1   3.807E-03
  CGR           4          0          1   1.169E-03
  CGR           5          0          1   2.517E-04
  CGR           6          0          1   5.163E-05
  CGR           7          0          1   8.182E-06
  CGR           8          0          1   2.057E-06
  CGR           9          1          0   4.468E-07

    CGRSolver converged.

  ==> DFCorrGrad: Density-Fitted Correlated Gradients <==

    OpenMP threads:             16
    Integrals threads:          16
    Memory (MB):             78678
    Schwarz Cutoff:          0E+00
    Fitting Condition:       1E-12

   => Auxiliary Basis Set <=

  Basis Set: file /usr/local/hpc5/psi4conda/envs/p4env/share/psi4/basis/cc-pvtz-jkfit.gbs
    Number of shells: 90
    Number of basis function: 278
    Number of Cartesian functions: 332
    Spherical Harmonics?: true
    Max angular momentum: 4

	-----------------------------------------------------------
	 ==================> DF-MP2 Energies <==================== 
	-----------------------------------------------------------
	 Reference Energy          =    -115.0875261434964472 [Eh]
	 Singles Energy            =      -0.0000000000000000 [Eh]
	 Same-Spin Energy          =      -0.0982085637385606 [Eh]
	 Opposite-Spin Energy      =      -0.3298230018678829 [Eh]
	 Correlation Energy        =      -0.4280315656064435 [Eh]
	 Total Energy              =    -115.5155577091028931 [Eh]
	-----------------------------------------------------------
	 ================> DF-SCS-MP2 Energies <================== 
	-----------------------------------------------------------
	 SCS Same-Spin Scale       =       0.3333333333333333 [-]
	 SCS Opposite-Spin Scale   =       1.2000000000000000 [-]
	 SCS Same-Spin Energy      =      -0.0327361879128535 [Eh]
	 SCS Opposite-Spin Energy  =      -0.3957876022414594 [Eh]
	 SCS Correlation Energy    =      -0.4285237901543130 [Eh]
	 SCS Total Energy          =    -115.5160499336507627 [Eh]
	-----------------------------------------------------------


  -Total Gradient:
     Atom            X                  Y                   Z
    ------   -----------------  -----------------  -----------------
       1        0.000000045924    -0.000000424365     0.000000086956
       2        0.000000153893    -0.000000050773    -0.000000020516
       3       -0.000000253139     0.000000048520     0.000000024536
       4       -0.000000190267     0.000000057318    -0.000000032051
       5        0.000000063870     0.000000312186    -0.000000060719
       6        0.000000179722     0.000000057114     0.000000001795


*** tstop() called on wr30 at Tue Apr  4 09:48:59 2017
Module time:
	user time   =      54.43 seconds =       0.91 minutes
	system time =       1.85 seconds =       0.03 minutes
	total time  =          6 seconds =       0.10 minutes
Total time:
	user time   =     616.85 seconds =      10.28 minutes
	system time =      21.00 seconds =       0.35 minutes
	total time  =         62 seconds =       1.03 minutes

			-----------------------------------------
			 OPTKING 2.0: for geometry optimizations 
			  - R.A. King,  Bethel University        
			-----------------------------------------

	Previous internal coordinate definitions found.
	---Fragment 1 Geometry and Gradient---
	 C          -1.3764421965        0.0326101250        0.0089432726
	 H          -2.0408011603        1.9800441484       -0.0342880257
	 H          -2.1200512594       -0.8596819465        1.7072073575
	 H          -2.1436984158       -0.9418910434       -1.6326735817
	 O           1.3060932218       -0.1333967154       -0.0059640704
	 H           1.9649650231        1.5503483466       -0.0520776402
	             0.0000000459       -0.0000004244        0.0000000870
	             0.0000001539       -0.0000000508       -0.0000000205
	            -0.0000002531        0.0000000485        0.0000000245
	            -0.0000001903        0.0000000573       -0.0000000321
	             0.0000000639        0.0000003122       -0.0000000607
	             0.0000001797        0.0000000571        0.0000000018

	---Fragment 1 Intrafragment Coordinates---
	 - Coordinate -           - BOHR/RAD -       - ANG/DEG -
	 R(1,2)           =         2.058092	       1.089095
	 R(1,3)           =         2.057484	       1.088774
	 R(1,4)           =         2.057484	       1.088774
	 R(1,5)           =         2.687708	       1.422274
	 R(5,6)           =         1.808656	       0.957099
	 B(1,5,6)         =         1.882025	     107.832110
	 B(2,1,3)         =         1.887078	     108.121615
	 B(2,1,4)         =         1.887078	     108.121604
	 B(2,1,5)         =         1.961144	     112.365268
	 B(3,1,4)         =         1.894827	     108.565575
	 B(3,1,5)         =         1.916132	     109.786291
	 B(4,1,5)         =         1.916132	     109.786272
	 D(2,1,5,6)       =        -0.000000	      -0.000000
	 D(3,1,5,6)       =        -2.100715	    -120.362127
	 D(4,1,5,6)       =         2.100711	     120.361847

	Current energy   :      -115.5155577091

	Energy change for the previous step:
		Projected    :         0.0000000000
		Actual       :        -0.0000000000

	Performing Bofill update.
	Previous computed or guess Hessian on step 1.
	Denominators (dg)(dq) or (dq)(dq) are very small.
	 Skipping Hessian update for step 10.
	Denominators (dg)(dq) or (dq)(dq) are very small.
	 Skipping Hessian update for step 9.
	Denominators (dg)(dq) or (dq)(dq) are very small.
	 Skipping Hessian update for step 8.
	Denominators (dg)(dq) or (dq)(dq) are very small.
	 Skipping Hessian update for step 7.
	Denominators (dg)(dq) or (dq)(dq) are very small.
	 Skipping Hessian update for step 6.
	Steps to be used in Hessian update: 5 4
	Taking PRFO optimization step.
	Maximizing along 1 lowest eigenvalue of Hessian.

 RFO min eigenvalues
 -0.000000  0.000000  0.000000  0.000000  0.095891  0.098575  0.122801  0.158743
  0.160086  0.169116  0.342626  0.353492  0.354891  0.402721  0.576789

 RFO max eigenvalues
 -0.002918  0.000000
	Norm of target step-size    0.00001

	Back-transformation to cartesian coordinates...
	Successfully converged to displaced geometry.
	First geometry is closer to target in internal coordinates, so am using that one.
	First geometry has RMS(Delta(q)) = 3.81e-08

	--- Internal Coordinate Step in ANG or DEG, aJ/ANG or AJ/DEG ---
	 ---------------------------------------------------------------------------
	   Coordinate                Previous        Force       Change         New 
	   ----------                --------       ------       ------       ------
	    1 R(1,2)          =      1.089095     0.000001     0.000000     1.089095
	    2 R(1,3)          =      1.088774    -0.000001    -0.000000     1.088773
	    3 R(1,4)          =      1.088774    -0.000001    -0.000000     1.088774
	    4 R(1,5)          =      1.422274    -0.000002    -0.000000     1.422274
	    5 R(5,6)          =      0.957099    -0.000001    -0.000000     0.957099
	    6 B(1,5,6)        =    107.832110    -0.000000    -0.000088   107.832021
	    7 B(2,1,3)        =    108.121615     0.000000     0.000052   108.121667
	    8 B(2,1,4)        =    108.121604     0.000000     0.000071   108.121674
	    9 B(2,1,5)        =    112.365268     0.000000     0.000143   112.365411
	   10 B(3,1,4)        =    108.565575     0.000000     0.000014   108.565589
	   11 B(3,1,5)        =    109.786291    -0.000000    -0.000169   109.786122
	   12 B(4,1,5)        =    109.786272    -0.000000    -0.000109   109.786163
	   13 D(2,1,5,6)      =      0.000000    -0.000000     0.000000     0.000000
	   14 D(3,1,5,6)      =   -120.362127    -0.000000    -0.000036  -120.362163
	   15 D(4,1,5,6)      =    120.361847     0.000000     0.000117   120.361964
	 ---------------------------------------------------------------------------
	Successfully symmetrized geometry.

  ==> Convergence Check <==

  Measures of convergence in internal coordinates in au.
  Criteria marked as inactive (o), active & met (*), and active & unmet ( ).
  ---------------------------------------------------------------------------------------------
   Step     Total Energy     Delta E     MAX Force     RMS Force      MAX Disp      RMS Disp   
  ---------------------------------------------------------------------------------------------
    Convergence Criteria             o    1.50e-05 *    1.00e-05 *    6.00e-05 *    4.00e-05 *
  ---------------------------------------------------------------------------------------------
     11    -115.51555771   -1.13e-11 o    3.86e-07 *    1.94e-07 *    2.94e-06 *    1.37e-06 *  ~
  ---------------------------------------------------------------------------------------------


  **** Optimization is complete! (in 11 steps) ****

  ==> Optimization Summary <==

  Measures of convergence in internal coordinates in au.
  --------------------------------------------------------------------------------------------------------------- ~
   Step         Total Energy             Delta E       MAX Force       RMS Force        MAX Disp        RMS Disp  ~
  --------------------------------------------------------------------------------------------------------------- ~
      1    -115.515048200271   -115.515048200271      0.01369634      0.00497404      0.03244243      0.01335432  ~
      2    -115.515533033923     -0.000484833651      0.00225450      0.00075903      0.01112573      0.00406096  ~
      3    -115.515555281236     -0.000022247314      0.00105790      0.00030779      0.00021236      0.00010723  ~
      4    -115.515555505415     -0.000000224179      0.00100612      0.00029280      0.00524103      0.00258651  ~
      5    -115.515557836924     -0.000002331509      0.00011734      0.00004659      0.01685911      0.00736810  ~
      6    -115.515557670360      0.000000166563      0.00019022      0.00010335      0.01034838      0.00448081  ~
      7    -115.515557693955     -0.000000023595      0.00004573      0.00001937      0.00061354      0.00026741  ~
      8    -115.515557708360     -0.000000014405      0.00001124      0.00000512      0.00007387      0.00003068  ~
      9    -115.515557708979     -0.000000000619      0.00000429      0.00000159      0.00006753      0.00002620  ~
     10    -115.515557709092     -0.000000000113      0.00000132      0.00000048      0.00007929      0.00003430  ~
     11    -115.515557709103     -0.000000000011      0.00000039      0.00000019      0.00000294      0.00000137  ~
  --------------------------------------------------------------------------------------------------------------- ~

	Writing optimization data to binary file.
	Final energy is   -115.5155577091029
	Final (previous) structure:
	Cartesian Geometry (in Angstrom)
	    C    -0.7283818393   0.0172565349   0.0047325760
	    H    -1.0799454613   1.0477942353  -0.0181444417
	    H    -1.1218828075  -0.4549240927   0.9034152239
	    H    -1.1343963437  -0.4984272732  -0.8639736485
	    O     0.6911547653  -0.0705905015  -0.0031560501
	    H     1.0398147059   0.8204090104  -0.0275583003
	Saving final (previous) structure.
			--------------------------
			 OPTKING Finished Execution 
			--------------------------

    Final optimized geometry and variables:
    Molecular point group: c1
    Full point group: C1

    Geometry (in Angstrom), charge = 0, multiplicity = 1:

    C           -0.728381839333     0.017256534899     0.004732576046
    H           -1.079945461294     1.047794235311    -0.018144441704
    H           -1.121882807536    -0.454924092739     0.903415223900
    H           -1.134396343725    -0.498427273167    -0.863973648479
    O            0.691154765295    -0.070590501466    -0.003156050117
    H            1.039814705921     0.820409010399    -0.027558300286

	Cleaning optimization helper files.

*** Psi4 exiting successfully. Buy a developer a beer!
