
    -----------------------------------------------------------------------
          Psi4: An Open-Source Ab Initio Electronic Structure Package
                               Psi4 1.1a2.dev170 

                         Git: Rev {master} e4fcd91 dirty


    J. M. Turney, A. C. Simmonett, R. M. Parrish, E. G. Hohenstein,
    F. A. Evangelista, J. T. Fermann, B. J. Mintz, L. A. Burns, J. J. Wilke,
    M. L. Abrams, N. J. Russ, M. L. Leininger, C. L. Janssen, E. T. Seidl,
    W. D. Allen, H. F. Schaefer, R. A. King, E. F. Valeev, C. D. Sherrill,
    and T. D. Crawford, WIREs Comput. Mol. Sci. 2, 556-565 (2012)
    (doi: 10.1002/wcms.93)


                         Additional Contributions by
    A. E. DePrince, U. Bozkaya, A. Yu. Sokolov, D. G. A. Smith, R. Di Remigio,
    R. M. Richard, J. F. Gonthier, H. R. McAlexander, M. Saitow, and
    B. P. Pritchard
    -----------------------------------------------------------------------


    Psi4 started on: Friday, 31 March 2017 02:31PM

    Process ID:  24972
    PSIDATADIR: /usr/local/hpc5/psi4conda/envs/p4env/share/psi4
    Memory:     500.0 MiB
    Threads:    16
    
  ==> Input File <==

--------------------------------------------------------------------------
memory 55 Gb

molecule molecule_1 {
0 1
C         -0.73000       -0.03100       -0.00300
H         -1.10500       -0.58000       -0.86400
H         -1.12700        0.97300       -0.04000
H         -1.09500       -0.51200        0.90200
O          0.66500        0.07500       -0.01400
H          1.04700       -0.79000        0.01700
}

set globals {
  reference rhf
  g_convergence gau_tight
  basis cc-pvtz
  freeze_core true
}
optimize('mp2')
--------------------------------------------------------------------------

  Memory set to  55.000 GiB by Python script.
gradient() will perform analytic gradient computation.

*** tstart() called on wr37
*** at Fri Mar 31 14:31:55 2017

    SCF Algorithm Type (re)set to DF.

         ---------------------------------------------------------
                                   SCF
            by Justin Turney, Rob Parrish, and Andy Simmonett
                              RHF Reference
                       16 Threads,  55000 MiB Core
         ---------------------------------------------------------

  ==> Geometry <==

    Molecular point group: c1
    Full point group: C1

    Geometry (in Angstrom), charge = 0, multiplicity = 1:

       Center              X                  Y                   Z               Mass       
    ------------   -----------------  -----------------  -----------------  -----------------
           C         -0.716847560524    -0.028236814954     0.004644095037    12.000000000000
           H         -1.091847560524    -0.577236814954    -0.856355904963     1.007825032070
           H         -1.113847560524     0.975763185046    -0.032355904963     1.007825032070
           H         -1.081847560524    -0.509236814954     0.909644095037     1.007825032070
           O          0.678152439476     0.077763185046    -0.006355904963    15.994914619560
           H          1.060152439476    -0.787236814954     0.024644095037     1.007825032070

  Running in c1 symmetry.

  Rotational constants: A =      4.37247  B =      0.84847  C =      0.81930 [cm^-1]
  Rotational constants: A = 131083.43831  B =  25436.57214  C =  24561.95527 [MHz]
  Nuclear repulsion =   40.796034003129797

  Charge       = 0
  Multiplicity = 1
  Electrons    = 18
  Nalpha       = 9
  Nbeta        = 9

  ==> Algorithm <==

  SCF Algorithm Type is DF.
  DIIS enabled.
  MOM disabled.
  Fractional occupation disabled.
  Guess Type is SAD.
  Energy threshold   = 1.00e-10
  Density threshold  = 1.00e-10
  Integral threshold = 0.00e+00

  ==> Primary Basis <==

  Basis Set: file /usr/local/hpc5/psi4conda/envs/p4env/share/psi4/basis/cc-pvtz.gbs
    Number of shells: 44
    Number of basis function: 116
    Number of Cartesian functions: 130
    Spherical Harmonics?: true
    Max angular momentum: 3

  ==> Pre-Iterations <==

   -------------------------------------------------------
    Irrep   Nso     Nmo     Nalpha   Nbeta   Ndocc  Nsocc
   -------------------------------------------------------
     A        116     116       0       0       0       0
   -------------------------------------------------------
    Total     116     116       9       9       9       0
   -------------------------------------------------------

  ==> Integral Setup <==

  ==> DFJK: Density-Fitted J/K Matrices <==

    J tasked:                  Yes
    K tasked:                  Yes
    wK tasked:                  No
    OpenMP threads:             16
    Integrals threads:          16
    Memory (MB):             39339
    Algorithm:                Core
    Integral Cache:           NONE
    Schwarz Cutoff:          1E-12
    Fitting Condition:       1E-12

   => Auxiliary Basis Set <=

  Basis Set: file /usr/local/hpc5/psi4conda/envs/p4env/share/psi4/basis/cc-pvtz-jkfit.gbs
    Number of shells: 90
    Number of basis function: 278
    Number of Cartesian functions: 332
    Spherical Harmonics?: true
    Max angular momentum: 4

  Minimum eigenvalue in the overlap matrix is 1.8055205815E-03.
  Using Symmetric Orthogonalization.

  SCF Guess: Superposition of Atomic Densities via on-the-fly atomic UHF.

  ==> Iterations <==

                           Total Energy        Delta E     RMS |[F,P]|

   @DF-RHF iter   0:  -115.28534793769123   -1.15285e+02   2.11089e-02 
   @DF-RHF iter   1:  -115.02174764825877    2.63600e-01   3.28992e-03 
   @DF-RHF iter   2:  -115.07120695361724   -4.94593e-02   2.00343e-03 DIIS
   @DF-RHF iter   3:  -115.08907584986677   -1.78689e-02   3.02311e-04 DIIS
   @DF-RHF iter   4:  -115.09005568073161   -9.79831e-04   5.97683e-05 DIIS
   @DF-RHF iter   5:  -115.09010844402897   -5.27633e-05   1.95985e-05 DIIS
   @DF-RHF iter   6:  -115.09011422681552   -5.78279e-06   6.42916e-06 DIIS
   @DF-RHF iter   7:  -115.09011493351360   -7.06698e-07   1.82260e-06 DIIS
   @DF-RHF iter   8:  -115.09011501119501   -7.76814e-08   4.43186e-07 DIIS
   @DF-RHF iter   9:  -115.09011501503812   -3.84311e-09   9.28657e-08 DIIS
   @DF-RHF iter  10:  -115.09011501520233   -1.64206e-10   1.96803e-08 DIIS
   @DF-RHF iter  11:  -115.09011501520943   -7.10543e-12   3.73795e-09 DIIS
   @DF-RHF iter  12:  -115.09011501520968   -2.41585e-13   6.87289e-10 DIIS
   @DF-RHF iter  13:  -115.09011501520983   -1.56319e-13   1.40022e-10 DIIS
   @DF-RHF iter  14:  -115.09011501520978    5.68434e-14   2.70344e-11 DIIS

  ==> Post-Iterations <==

    Orbital Energies (a.u.)
    -----------------------

    Doubly Occupied:                                                      

       1A    -20.549573     2A    -11.264885     3A     -1.363248  
       4A     -0.926589     5A     -0.695331     6A     -0.622019  
       7A     -0.597441     8A     -0.499844     9A     -0.446996  

    Virtual:                                                              

      10A      0.139415    11A      0.179784    12A      0.221482  
      13A      0.225415    14A      0.292417    15A      0.386152  
      16A      0.403616    17A      0.556169    18A      0.586934  
      19A      0.625585    20A      0.628000    21A      0.643537  
      22A      0.694486    23A      0.708183    24A      0.726890  
      25A      0.831994    26A      0.871900    27A      0.872140  
      28A      0.930866    29A      1.072366    30A      1.104921  
      31A      1.178346    32A      1.190833    33A      1.265486  
      34A      1.270416    35A      1.290002    36A      1.367924  
      37A      1.448914    38A      1.496690    39A      1.527538  
      40A      1.549079    41A      1.583439    42A      1.642477  
      43A      1.783044    44A      2.094912    45A      2.182410  
      46A      2.205636    47A      2.314115    48A      2.323110  
      49A      2.497693    50A      2.505471    51A      2.574386  
      52A      2.808494    53A      2.956143    54A      3.060668  
      55A      3.115830    56A      3.129181    57A      3.150199  
      58A      3.244146    59A      3.252535    60A      3.317279  
      61A      3.323428    62A      3.358976    63A      3.395048  
      64A      3.506241    65A      3.619276    66A      3.644262  
      67A      3.708532    68A      3.719974    69A      3.757533  
      70A      3.765887    71A      3.817321    72A      3.860380  
      73A      3.922409    74A      4.019420    75A      4.032057  
      76A      4.127338    77A      4.171993    78A      4.185550  
      79A      4.258429    80A      4.261030    81A      4.311885  
      82A      4.410461    83A      4.463967    84A      4.491696  
      85A      4.573217    86A      4.594727    87A      4.735510  
      88A      4.809829    89A      5.008920    90A      5.072956  
      91A      5.073891    92A      5.220741    93A      5.304700  
      94A      5.328030    95A      5.383526    96A      5.461626  
      97A      5.564680    98A      5.572235    99A      5.588586  
     100A      5.832086   101A      5.960032   102A      6.204452  
     103A      6.236777   104A      6.269646   105A      6.481310  
     106A      6.688924   107A      7.042380   108A      7.148331  
     109A      7.226936   110A      7.261829   111A      7.377932  
     112A      7.468530   113A      7.607145   114A      7.972279  
     115A     12.313668   116A     13.922809  

    Final Occupation by Irrep:
              A 
    DOCC [     9 ]

  Energy converged.

  @DF-RHF Final Energy:  -115.09011501520978

   => Energetics <=

    Nuclear Repulsion Energy =             40.7960340031297974
    One-Electron Energy =                -237.8404431296957000
    Two-Electron Energy =                  81.9542941113561341
    DFT Exchange-Correlation Energy =       0.0000000000000000
    Empirical Dispersion Energy =           0.0000000000000000
    PCM Polarization Energy =               0.0000000000000000
    EFP Energy =                            0.0000000000000000
    Total Energy =                       -115.0901150152097756

    Alert: EFP and PCM quantities not currently incorporated into SCF psivars.

Properties will be evaluated at   0.000000,   0.000000,   0.000000 Bohr

Properties computed using the SCF density matrix

  Nuclear Dipole Moment: (a.u.)
     X:    -2.0849      Y:    -0.8414      Z:     0.0427

  Electronic Dipole Moment: (a.u.)
     X:     1.7514      Y:     0.2545      Z:    -0.0188

  Dipole Moment: (a.u.)
     X:    -0.3335      Y:    -0.5870      Z:     0.0239     Total:     0.6755

  Dipole Moment: (Debye)
     X:    -0.8476      Y:    -1.4919      Z:     0.0606     Total:     1.7169


  //>>>>>>>>>>>>>>>>>>>>>>>>>>>>>>>>>>>//
  //               DFMP2               //
  //<<<<<<<<<<<<<<<<<<<<<<<<<<<<<<<<<<<//

	 --------------------------------------------------------
	                          DF-MP2                         
	      2nd-Order Density-Fitted Moller-Plesset Theory     
	              RMP2 Wavefunction,  16 Threads             
	                                                         
	        Rob Parrish, Justin Turney, Andy Simmonett,      
	           Ed Hohenstein, and C. David Sherrill          
	 --------------------------------------------------------

   => Auxiliary Basis Set <=

  Basis Set: file /usr/local/hpc5/psi4conda/envs/p4env/share/psi4/basis/cc-pvtz-ri.gbs
    Number of shells: 86
    Number of basis function: 282
    Number of Cartesian functions: 342
    Spherical Harmonics?: true
    Max angular momentum: 4

	 --------------------------------------------------------
	                 NBF =   116, NAUX =   282
	 --------------------------------------------------------
	   CLASS    FOCC     OCC    AOCC    AVIR     VIR    FVIR
	   PAIRS       2       9       7     107     107       0
	 --------------------------------------------------------


         ------------------------------------------------------------
                                     CPHF                           
                                  Rob Parrish                       
         ------------------------------------------------------------

  ==> Geometry <==

    Molecular point group: c1
    Full point group: C1

    Geometry (in Angstrom), charge = 0, multiplicity = 1:

       Center              X                  Y                   Z               Mass       
    ------------   -----------------  -----------------  -----------------  -----------------
           C         -0.716847560524    -0.028236814954     0.004644095037    12.000000000000
           H         -1.091847560524    -0.577236814954    -0.856355904963     1.007825032070
           H         -1.113847560524     0.975763185046    -0.032355904963     1.007825032070
           H         -1.081847560524    -0.509236814954     0.909644095037     1.007825032070
           O          0.678152439476     0.077763185046    -0.006355904963    15.994914619560
           H          1.060152439476    -0.787236814954     0.024644095037     1.007825032070

  Nuclear repulsion =   40.796034003129797
  Reference energy  = -115.090115015209776

  ==> Basis Set <==

  Basis Set: file /usr/local/hpc5/psi4conda/envs/p4env/share/psi4/basis/cc-pvtz.gbs
    Number of shells: 44
    Number of basis function: 116
    Number of Cartesian functions: 130
    Spherical Harmonics?: true
    Max angular momentum: 3

  ==> CGRSolver (by Rob Parrish) <==

   Number of roots    =         1
   Preconditioning    =    JACOBI
   Convergence cutoff =     1E-06
   Maximum iterations =       100

  ==> CPHFRHamiltonian (by Rob Parrish) <== 

  ==> DFJK: Density-Fitted J/K Matrices <==

    J tasked:                  Yes
    K tasked:                  Yes
    wK tasked:                  No
    OpenMP threads:             16
    Integrals threads:          16
    Memory (MB):             39339
    Algorithm:                Core
    Integral Cache:           NONE
    Schwarz Cutoff:          1E-12
    Fitting Condition:       1E-12

   => Auxiliary Basis Set <=

  Basis Set: file /usr/local/hpc5/psi4conda/envs/p4env/share/psi4/basis/cc-pvtz-jkfit.gbs
    Number of shells: 90
    Number of basis function: 278
    Number of Cartesian functions: 332
    Spherical Harmonics?: true
    Max angular momentum: 4

  ==> CPHF Iterations <==

  => Iterations <=

             Iter  Converged  Remaining    Residual
  CGR           1          0          1   5.576E-02
  CGR           2          0          1   1.116E-02
  CGR           3          0          1   3.149E-03
  CGR           4          0          1   1.038E-03
  CGR           5          0          1   2.297E-04
  CGR           6          0          1   4.628E-05
  CGR           7          0          1   7.543E-06
  CGR           8          0          1   1.833E-06
  CGR           9          1          0   3.982E-07

    CGRSolver converged.

  ==> DFCorrGrad: Density-Fitted Correlated Gradients <==

    OpenMP threads:             16
    Integrals threads:          16
    Memory (MB):             39339
    Schwarz Cutoff:          0E+00
    Fitting Condition:       1E-12

   => Auxiliary Basis Set <=

  Basis Set: file /usr/local/hpc5/psi4conda/envs/p4env/share/psi4/basis/cc-pvtz-jkfit.gbs
    Number of shells: 90
    Number of basis function: 278
    Number of Cartesian functions: 332
    Spherical Harmonics?: true
    Max angular momentum: 4

	-----------------------------------------------------------
	 ==================> DF-MP2 Energies <==================== 
	-----------------------------------------------------------
	 Reference Energy          =    -115.0901150152097756 [Eh]
	 Singles Energy            =      -0.0000000000000000 [Eh]
	 Same-Spin Energy          =      -0.0979861050355975 [Eh]
	 Opposite-Spin Energy      =      -0.3287340627534193 [Eh]
	 Correlation Energy        =      -0.4267201677890168 [Eh]
	 Total Energy              =    -115.5168351829987898 [Eh]
	-----------------------------------------------------------
	 ================> DF-SCS-MP2 Energies <================== 
	-----------------------------------------------------------
	 SCS Same-Spin Scale       =       0.3333333333333333 [-]
	 SCS Opposite-Spin Scale   =       1.2000000000000000 [-]
	 SCS Same-Spin Energy      =      -0.0326620350118658 [Eh]
	 SCS Opposite-Spin Energy  =      -0.3944808753041031 [Eh]
	 SCS Correlation Energy    =      -0.4271429103159689 [Eh]
	 SCS Total Energy          =    -115.5172579255257403 [Eh]
	-----------------------------------------------------------


  -Total Gradient:
     Atom            X                  Y                   Z
    ------   -----------------  -----------------  -----------------
       1        0.006120309958     0.005368369539    -0.000363877509
       2        0.002376403965     0.000959358438     0.002011980012
       3        0.001479795796    -0.003285362467     0.000070335494
       4        0.002466933089     0.000704541914    -0.002007388213
       5       -0.009194304666    -0.016902747237     0.000774483190
       6       -0.003249138140     0.013155839813    -0.000485532973


*** tstop() called on wr37 at Fri Mar 31 14:32:23 2017
Module time:
	user time   =      84.42 seconds =       1.41 minutes
	system time =       5.87 seconds =       0.10 minutes
	total time  =         28 seconds =       0.47 minutes
Total time:
	user time   =      84.42 seconds =       1.41 minutes
	system time =       5.87 seconds =       0.10 minutes
	total time  =         28 seconds =       0.47 minutes

			-----------------------------------------
			 OPTKING 2.0: for geometry optimizations 
			  - R.A. King,  Bethel University        
			-----------------------------------------

	Internal coordinates to be generated automatically.
	Detected frag 1 with atoms:  1 2 3 4 5 6
	---Fragment 1 Bond Connectivity---
	 1 : 2 3 4 5
	 2 : 1
	 3 : 1
	 4 : 1
	 5 : 1 6
	 6 : 5

	---Fragment 1 Geometry and Gradient---
	 C          -1.3546455684       -0.0533598471        0.0087760678
	 H          -2.0632928682       -1.0908194941       -1.6182781327
	 H          -2.1048668432        1.8439251903       -0.0611437992
	 H          -2.0443956069       -0.9623181170        1.7189782180
	 O           1.2815223870        0.1469511230       -0.0120109197
	 H           2.0033977697       -1.4876619820        0.0465705904
	             0.0061203100        0.0053683695       -0.0003638775
	             0.0023764040        0.0009593584        0.0020119800
	             0.0014797958       -0.0032853625        0.0000703355
	             0.0024669331        0.0007045419       -0.0020073882
	            -0.0091943047       -0.0169027472        0.0007744832
	            -0.0032491381        0.0131558398       -0.0004855330

	Previous optimization step data not found.  Starting new optimization.

	---Fragment 1 Intrafragment Coordinates---
	 - Coordinate -           - BOHR/RAD -       - ANG/DEG -
	 R(1,2)           =         2.055677	       1.087818
	 R(1,3)           =         2.041424	       1.080275
	 R(1,4)           =         2.055907	       1.087939
	 R(1,5)           =         2.643849	       1.399065
	 R(5,6)           =         1.787875	       0.946103
	 B(1,5,6)         =         1.910344	     109.454668
	 B(2,1,3)         =         1.891517	     108.375931
	 B(2,1,4)         =         1.896122	     108.639815
	 B(2,1,5)         =         1.955991	     112.070021
	 B(3,1,4)         =         1.892412	     108.427241
	 B(3,1,5)         =         1.871033	     107.202317
	 B(4,1,5)         =         1.954718	     111.997096
	 D(2,1,5,6)       =        -1.067519	     -61.164308
	 D(3,1,5,6)       =        -3.140831	    -179.956346
	 D(4,1,5,6)       =         1.068680	      61.230862

	Current energy   :      -115.5168351830

	Generating empirical Hessian (Schlegel '84) for each fragment.
	Taking RFO optimization step.
	Going to follow RFO solution 1.
	Using RFO vector 1.
	Norm of target step-size    0.05362
	Projected energy change by RFO approximation:        -0.0006405497

	Back-transformation to cartesian coordinates...
	Successfully converged to displaced geometry.

	--- Internal Coordinate Step in ANG or DEG, aJ/ANG or AJ/DEG ---
	 ---------------------------------------------------------------------------
	   Coordinate                Previous        Force       Change         New 
	   ----------                --------       ------       ------       ------
	    1 R(1,2)          =      1.087818     0.023858     0.004358     1.092176
	    2 R(1,3)          =      1.080275     0.029656     0.005283     1.085558
	    3 R(1,4)          =      1.087939     0.023142     0.004229     1.092168
	    4 R(1,5)          =      1.399065     0.104578     0.014644     1.413708
	    5 R(5,6)          =      0.946103     0.110035     0.012047     0.958150
	    6 B(1,5,6)        =    109.454668    -0.000319    -1.491448   107.963220
	    7 B(2,1,3)        =    108.375931    -0.000080    -0.480741   107.895190
	    8 B(2,1,4)        =    108.639815    -0.000085    -0.223132   108.416683
	    9 B(2,1,5)        =    112.070021     0.000140     0.716417   112.786437
	   10 B(3,1,4)        =    108.427241    -0.000089    -0.522756   107.904485
	   11 B(3,1,5)        =    107.202317    -0.000061    -0.395686   106.806631
	   12 B(4,1,5)        =    111.997096     0.000160     0.807431   112.804527
	   13 D(2,1,5,6)      =    -61.164308    -0.000013    -0.436327   -61.600635
	   14 D(3,1,5,6)      =   -179.956346    -0.000000    -0.006442  -179.962788
	   15 D(4,1,5,6)      =     61.230862     0.000013     0.422490    61.653352
	 ---------------------------------------------------------------------------
	Successfully symmetrized geometry.

  ==> Convergence Check <==

  Measures of convergence in internal coordinates in au.
  Criteria marked as inactive (o), active & met (*), and active & unmet ( ).
  --------------------------------------------------------------------------------------------- ~
   Step     Total Energy     Delta E     MAX Force     RMS Force      MAX Disp      RMS Disp    ~
  --------------------------------------------------------------------------------------------- ~
    Convergence Criteria             o    1.50e-05 *    1.00e-05 *    6.00e-05 *    4.00e-05 *  ~
  --------------------------------------------------------------------------------------------- ~
      1    -115.51683518   -1.16e+02 o    1.34e-02      5.16e-03      2.77e-02      1.38e-02    ~
  ---------------------------------------------------------------------------------------------

	Writing optimization data to binary file.
	Structure for next step:
	Cartesian Geometry (in Angstrom)
	    C    -0.7144348674  -0.0287150723   0.0049502757
	    H    -1.1037190013  -0.5700526309  -0.8600698531
	    H    -1.1071025045   0.9827278475  -0.0301462204
	    H    -1.0955513845  -0.5056200417   0.9105679378
	    O     0.6950920220   0.0794117832  -0.0057377139
	    H     1.0596303726  -0.8061727754   0.0243001441
			--------------------------
			 OPTKING Finished Execution 
			--------------------------

    Structure for next step:
    Molecular point group: c1
    Full point group: C1

    Geometry (in Angstrom), charge = 0, multiplicity = 1:

    C           -0.723190063377    -0.029322406016     0.004555896369
    H           -1.112474197301    -0.570659964539    -0.860464232394
    H           -1.115857700511     0.982120513783    -0.030540599655
    H           -1.104306580497    -0.506227375412     0.910173558528
    O            0.686336826066     0.078804449481    -0.006132093186
    H            1.050875176650    -0.806780109060     0.023905764764

gradient() will perform analytic gradient computation.

*** tstart() called on wr37
*** at Fri Mar 31 14:32:23 2017

    SCF Algorithm Type (re)set to DF.

         ---------------------------------------------------------
                                   SCF
            by Justin Turney, Rob Parrish, and Andy Simmonett
                              RHF Reference
                       16 Threads,  55000 MiB Core
         ---------------------------------------------------------

  ==> Geometry <==

    Molecular point group: c1
    Full point group: C1

    Geometry (in Angstrom), charge = 0, multiplicity = 1:

       Center              X                  Y                   Z               Mass       
    ------------   -----------------  -----------------  -----------------  -----------------
           C         -0.723190063377    -0.029322406016     0.004555896369    12.000000000000
           H         -1.112474197301    -0.570659964539    -0.860464232394     1.007825032070
           H         -1.115857700511     0.982120513783    -0.030540599655     1.007825032070
           H         -1.104306580497    -0.506227375412     0.910173558528     1.007825032070
           O          0.686336826066     0.078804449481    -0.006132093186    15.994914619560
           H          1.050875176650    -0.806780109060     0.023905764764     1.007825032070

  Running in c1 symmetry.

  Rotational constants: A =      4.32354  B =      0.83267  C =      0.80349 [cm^-1]
  Rotational constants: A = 129616.56431  B =  24962.68668  C =  24088.07361 [MHz]
  Nuclear repulsion =   40.444179716803554

  Charge       = 0
  Multiplicity = 1
  Electrons    = 18
  Nalpha       = 9
  Nbeta        = 9

  ==> Algorithm <==

  SCF Algorithm Type is DF.
  DIIS enabled.
  MOM disabled.
  Fractional occupation disabled.
  Guess Type is READ.
  Energy threshold   = 1.00e-10
  Density threshold  = 1.00e-10
  Integral threshold = 0.00e+00

  ==> Primary Basis <==

  Basis Set: file /usr/local/hpc5/psi4conda/envs/p4env/share/psi4/basis/cc-pvtz.gbs
    Number of shells: 44
    Number of basis function: 116
    Number of Cartesian functions: 130
    Spherical Harmonics?: true
    Max angular momentum: 3

  Reading orbitals from file 180, no projection.

  ==> Pre-Iterations <==

   -------------------------------------------------------
    Irrep   Nso     Nmo     Nalpha   Nbeta   Ndocc  Nsocc
   -------------------------------------------------------
     A        116     116       0       0       0       0
   -------------------------------------------------------
    Total     116     116       9       9       9       0
   -------------------------------------------------------

  ==> Integral Setup <==

  ==> DFJK: Density-Fitted J/K Matrices <==

    J tasked:                  Yes
    K tasked:                  Yes
    wK tasked:                  No
    OpenMP threads:             16
    Integrals threads:          16
    Memory (MB):             39339
    Algorithm:                Core
    Integral Cache:           NONE
    Schwarz Cutoff:          1E-12
    Fitting Condition:       1E-12

   => Auxiliary Basis Set <=

  Basis Set: file /usr/local/hpc5/psi4conda/envs/p4env/share/psi4/basis/cc-pvtz-jkfit.gbs
    Number of shells: 90
    Number of basis function: 278
    Number of Cartesian functions: 332
    Spherical Harmonics?: true
    Max angular momentum: 4

  Minimum eigenvalue in the overlap matrix is 1.8318129488E-03.
  Using Symmetric Orthogonalization.

  SCF Guess: Orbitals guess was supplied from a previous computation.

  ==> Iterations <==

                           Total Energy        Delta E     RMS |[F,P]|

   @DF-RHF iter   0:  -115.06960272402654   -1.15070e+02   3.88762e-04 
   @DF-RHF iter   1:  -115.08936278150738   -1.97601e-02   5.17465e-05 
   @DF-RHF iter   2:  -115.08938374401335   -2.09625e-05   1.96057e-05 DIIS
   @DF-RHF iter   3:  -115.08938645241662   -2.70840e-06   6.38292e-06 DIIS
   @DF-RHF iter   4:  -115.08938703862665   -5.86210e-07   2.20512e-06 DIIS
   @DF-RHF iter   5:  -115.08938710611025   -6.74836e-08   7.63731e-07 DIIS
   @DF-RHF iter   6:  -115.08938711304400   -6.93375e-09   2.15211e-07 DIIS
   @DF-RHF iter   7:  -115.08938711364458   -6.00579e-10   2.95763e-08 DIIS
   @DF-RHF iter   8:  -115.08938711365609   -1.15108e-11   5.82583e-09 DIIS
   @DF-RHF iter   9:  -115.08938711365661   -5.25802e-13   1.60153e-09 DIIS
   @DF-RHF iter  10:  -115.08938711365654    7.10543e-14   3.71075e-10 DIIS
   @DF-RHF iter  11:  -115.08938711365681   -2.70006e-13   9.64240e-11 DIIS

  ==> Post-Iterations <==

    Orbital Energies (a.u.)
    -----------------------

    Doubly Occupied:                                                      

       1A    -20.552684     2A    -11.267952     3A     -1.356706  
       4A     -0.924322     5A     -0.690264     6A     -0.618513  
       7A     -0.592184     8A     -0.501418     9A     -0.448847  

    Virtual:                                                              

      10A      0.138743    11A      0.178558    12A      0.220986  
      13A      0.224299    14A      0.291777    15A      0.386251  
      16A      0.405303    17A      0.546845    18A      0.585199  
      19A      0.623468    20A      0.625992    21A      0.639874  
      22A      0.691335    23A      0.704218    24A      0.721876  
      25A      0.832628    26A      0.866803    27A      0.871282  
      28A      0.928565    29A      1.071077    30A      1.100873  
      31A      1.179579    32A      1.192168    33A      1.263673  
      34A      1.269532    35A      1.283026    36A      1.368587  
      37A      1.445850    38A      1.489013    39A      1.524279  
      40A      1.546278    41A      1.585928    42A      1.621573  
      43A      1.777305    44A      2.094598    45A      2.181997  
      46A      2.205418    47A      2.304382    48A      2.324731  
      49A      2.487855    50A      2.509900    51A      2.576100  
      52A      2.804856    53A      2.951988    54A      3.060354  
      55A      3.111654    56A      3.121846    57A      3.144157  
      58A      3.229969    59A      3.245704    60A      3.316774  
      61A      3.317725    62A      3.343307    63A      3.389824  
      64A      3.501205    65A      3.619549    66A      3.636007  
      67A      3.702788    68A      3.712055    69A      3.751031  
      70A      3.762483    71A      3.815918    72A      3.843457  
      73A      3.907615    74A      4.003581    75A      4.023429  
      76A      4.119859    77A      4.161584    78A      4.176393  
      79A      4.250289    80A      4.257193    81A      4.293412  
      82A      4.408829    83A      4.443179    84A      4.471649  
      85A      4.564812    86A      4.585311    87A      4.716349  
      88A      4.786041    89A      4.997736    90A      5.039020  
      91A      5.058450    92A      5.205891    93A      5.277367  
      94A      5.319838    95A      5.379232    96A      5.426124  
      97A      5.552491    98A      5.552910    99A      5.570156  
     100A      5.797802   101A      5.948659   102A      6.199341  
     103A      6.217203   104A      6.257577   105A      6.455565  
     106A      6.654322   107A      7.007368   108A      7.131328  
     109A      7.194003   110A      7.241728   111A      7.365694  
     112A      7.438604   113A      7.602359   114A      7.926584  
     115A     12.169471   116A     13.753687  

    Final Occupation by Irrep:
              A 
    DOCC [     9 ]

  Energy converged.

  @DF-RHF Final Energy:  -115.08938711365681

   => Energetics <=

    Nuclear Repulsion Energy =             40.4441797168035535
    One-Electron Energy =                -237.1613525630838808
    Two-Electron Energy =                  81.6277857326235221
    DFT Exchange-Correlation Energy =       0.0000000000000000
    Empirical Dispersion Energy =           0.0000000000000000
    PCM Polarization Energy =               0.0000000000000000
    EFP Energy =                            0.0000000000000000
    Total Energy =                       -115.0893871136568123

    Alert: EFP and PCM quantities not currently incorporated into SCF psivars.

Properties will be evaluated at   0.000000,   0.000000,   0.000000 Bohr

Properties computed using the SCF density matrix

  Nuclear Dipole Moment: (a.u.)
     X:    -2.1358      Y:    -0.8448      Z:     0.0404

  Electronic Dipole Moment: (a.u.)
     X:     1.7758      Y:     0.2500      Z:    -0.0173

  Dipole Moment: (a.u.)
     X:    -0.3600      Y:    -0.5948      Z:     0.0231     Total:     0.6957

  Dipole Moment: (Debye)
     X:    -0.9150      Y:    -1.5119      Z:     0.0586     Total:     1.7682


  //>>>>>>>>>>>>>>>>>>>>>>>>>>>>>>>>>>>//
  //               DFMP2               //
  //<<<<<<<<<<<<<<<<<<<<<<<<<<<<<<<<<<<//

	 --------------------------------------------------------
	                          DF-MP2                         
	      2nd-Order Density-Fitted Moller-Plesset Theory     
	              RMP2 Wavefunction,  16 Threads             
	                                                         
	        Rob Parrish, Justin Turney, Andy Simmonett,      
	           Ed Hohenstein, and C. David Sherrill          
	 --------------------------------------------------------

   => Auxiliary Basis Set <=

  Basis Set: file /usr/local/hpc5/psi4conda/envs/p4env/share/psi4/basis/cc-pvtz-ri.gbs
    Number of shells: 86
    Number of basis function: 282
    Number of Cartesian functions: 342
    Spherical Harmonics?: true
    Max angular momentum: 4

	 --------------------------------------------------------
	                 NBF =   116, NAUX =   282
	 --------------------------------------------------------
	   CLASS    FOCC     OCC    AOCC    AVIR     VIR    FVIR
	   PAIRS       2       9       7     107     107       0
	 --------------------------------------------------------


         ------------------------------------------------------------
                                     CPHF                           
                                  Rob Parrish                       
         ------------------------------------------------------------

  ==> Geometry <==

    Molecular point group: c1
    Full point group: C1

    Geometry (in Angstrom), charge = 0, multiplicity = 1:

       Center              X                  Y                   Z               Mass       
    ------------   -----------------  -----------------  -----------------  -----------------
           C         -0.723190063377    -0.029322406016     0.004555896369    12.000000000000
           H         -1.112474197301    -0.570659964539    -0.860464232394     1.007825032070
           H         -1.115857700511     0.982120513783    -0.030540599655     1.007825032070
           H         -1.104306580497    -0.506227375412     0.910173558528     1.007825032070
           O          0.686336826066     0.078804449481    -0.006132093186    15.994914619560
           H          1.050875176650    -0.806780109060     0.023905764764     1.007825032070

  Nuclear repulsion =   40.444179716803554
  Reference energy  = -115.089387113656812

  ==> Basis Set <==

  Basis Set: file /usr/local/hpc5/psi4conda/envs/p4env/share/psi4/basis/cc-pvtz.gbs
    Number of shells: 44
    Number of basis function: 116
    Number of Cartesian functions: 130
    Spherical Harmonics?: true
    Max angular momentum: 3

  ==> CGRSolver (by Rob Parrish) <==

   Number of roots    =         1
   Preconditioning    =    JACOBI
   Convergence cutoff =     1E-06
   Maximum iterations =       100

  ==> CPHFRHamiltonian (by Rob Parrish) <== 

  ==> DFJK: Density-Fitted J/K Matrices <==

    J tasked:                  Yes
    K tasked:                  Yes
    wK tasked:                  No
    OpenMP threads:             16
    Integrals threads:          16
    Memory (MB):             39339
    Algorithm:                Core
    Integral Cache:           NONE
    Schwarz Cutoff:          1E-12
    Fitting Condition:       1E-12

   => Auxiliary Basis Set <=

  Basis Set: file /usr/local/hpc5/psi4conda/envs/p4env/share/psi4/basis/cc-pvtz-jkfit.gbs
    Number of shells: 90
    Number of basis function: 278
    Number of Cartesian functions: 332
    Spherical Harmonics?: true
    Max angular momentum: 4

  ==> CPHF Iterations <==

  => Iterations <=

             Iter  Converged  Remaining    Residual
  CGR           1          0          1   5.673E-02
  CGR           2          0          1   1.161E-02
  CGR           3          0          1   3.675E-03
  CGR           4          0          1   1.148E-03
  CGR           5          0          1   2.468E-04
  CGR           6          0          1   5.101E-05
  CGR           7          0          1   8.624E-06
  CGR           8          0          1   2.150E-06
  CGR           9          1          0   4.711E-07

    CGRSolver converged.

  ==> DFCorrGrad: Density-Fitted Correlated Gradients <==

    OpenMP threads:             16
    Integrals threads:          16
    Memory (MB):             39339
    Schwarz Cutoff:          0E+00
    Fitting Condition:       1E-12

   => Auxiliary Basis Set <=

  Basis Set: file /usr/local/hpc5/psi4conda/envs/p4env/share/psi4/basis/cc-pvtz-jkfit.gbs
    Number of shells: 90
    Number of basis function: 278
    Number of Cartesian functions: 332
    Spherical Harmonics?: true
    Max angular momentum: 4

	-----------------------------------------------------------
	 ==================> DF-MP2 Energies <==================== 
	-----------------------------------------------------------
	 Reference Energy          =    -115.0893871136568123 [Eh]
	 Singles Energy            =      -0.0000000000000000 [Eh]
	 Same-Spin Energy          =      -0.0982178109648583 [Eh]
	 Opposite-Spin Energy      =      -0.3297257830628035 [Eh]
	 Correlation Energy        =      -0.4279435940276619 [Eh]
	 Total Energy              =    -115.5173307076844793 [Eh]
	-----------------------------------------------------------
	 ================> DF-SCS-MP2 Energies <================== 
	-----------------------------------------------------------
	 SCS Same-Spin Scale       =       0.3333333333333333 [-]
	 SCS Opposite-Spin Scale   =       1.2000000000000000 [-]
	 SCS Same-Spin Energy      =      -0.0327392703216194 [Eh]
	 SCS Opposite-Spin Energy  =      -0.3956709396753642 [Eh]
	 SCS Correlation Energy    =      -0.4284102099969837 [Eh]
	 SCS Total Energy          =    -115.5177973236537952 [Eh]
	-----------------------------------------------------------


  -Total Gradient:
     Atom            X                  Y                   Z
    ------   -----------------  -----------------  -----------------
       1        0.003790304853     0.000259124453     0.000017453278
       2       -0.000878098908     0.000016461096    -0.000000478149
       3       -0.000116059750    -0.000219633677    -0.000002031797
       4       -0.000901881437     0.000011980496    -0.000005498905
       5       -0.002008856589    -0.001445690677     0.000043204944
       6        0.000114591834     0.001377758309    -0.000052649371


*** tstop() called on wr37 at Fri Mar 31 14:33:11 2017
Module time:
	user time   =      66.17 seconds =       1.10 minutes
	system time =       2.29 seconds =       0.04 minutes
	total time  =         48 seconds =       0.80 minutes
Total time:
	user time   =     150.60 seconds =       2.51 minutes
	system time =       8.16 seconds =       0.14 minutes
	total time  =         76 seconds =       1.27 minutes

			-----------------------------------------
			 OPTKING 2.0: for geometry optimizations 
			  - R.A. King,  Bethel University        
			-----------------------------------------

	Previous internal coordinate definitions found.
	---Fragment 1 Geometry and Gradient---
	 C          -1.3666311618       -0.0554113169        0.0086093964
	 H          -2.1022715628       -1.0783910480       -1.6260417464
	 H          -2.1086654572        1.8559388005       -0.0577133693
	 H          -2.0868370039       -0.9566311005        1.7199787590
	 O           1.2969886362        0.1489188276       -0.0115879767
	 H           1.9858662837       -1.5245934556        0.0451753484
	             0.0037903049        0.0002591245        0.0000174533
	            -0.0008780989        0.0000164611       -0.0000004781
	            -0.0001160597       -0.0002196337       -0.0000020318
	            -0.0009018814        0.0000119805       -0.0000054989
	            -0.0020088566       -0.0014456907        0.0000432049
	             0.0001145918        0.0013777583       -0.0000526494

	---Fragment 1 Intrafragment Coordinates---
	 - Coordinate -           - BOHR/RAD -       - ANG/DEG -
	 R(1,2)           =         2.063913	       1.092176
	 R(1,3)           =         2.051408	       1.085558
	 R(1,4)           =         2.063899	       1.092168
	 R(1,5)           =         2.671522	       1.413708
	 R(5,6)           =         1.810640	       0.958150
	 B(1,5,6)         =         1.884314	     107.963220
	 B(2,1,3)         =         1.883126	     107.895190
	 B(2,1,4)         =         1.892228	     108.416683
	 B(2,1,5)         =         1.968495	     112.786437
	 B(3,1,4)         =         1.883289	     107.904485
	 B(3,1,5)         =         1.864127	     106.806631
	 B(4,1,5)         =         1.968810	     112.804527
	 D(2,1,5,6)       =        -1.075134	     -61.600635
	 D(3,1,5,6)       =        -3.140943	    -179.962788
	 D(4,1,5,6)       =         1.076054	      61.653352

	Current energy   :      -115.5173307077

	Energy change for the previous step:
		Projected    :        -0.0006405497
		Actual       :        -0.0004955247
	Energy ratio indicates good step: Trust radius increased to 1.000e+00.


	Performing BFGS update.
	Previous computed or guess Hessian on step 1.
	Steps to be used in Hessian update: 1
	Taking RFO optimization step.
	Going to follow RFO solution 1.
	Using RFO vector 1.
	Norm of target step-size    0.01644
	Projected energy change by RFO approximation:        -0.0000245417

	Back-transformation to cartesian coordinates...
	Successfully converged to displaced geometry.

	--- Internal Coordinate Step in ANG or DEG, aJ/ANG or AJ/DEG ---
	 ---------------------------------------------------------------------------
	   Coordinate                Previous        Force       Change         New 
	   ----------                --------       ------       ------       ------
	    1 R(1,2)          =      1.092176    -0.002514    -0.000294     1.091882
	    2 R(1,3)          =      1.085558     0.001340     0.000497     1.086056
	    3 R(1,4)          =      1.092168    -0.002512    -0.000300     1.091869
	    4 R(1,5)          =      1.413708     0.015602     0.003013     1.416722
	    5 R(5,6)          =      0.958150     0.010146     0.001742     0.959892
	    6 B(1,5,6)        =    107.963220    -0.000087    -0.505355   107.457865
	    7 B(2,1,3)        =    107.895190     0.000043     0.240797   108.135988
	    8 B(2,1,4)        =    108.416683     0.000059     0.211382   108.628066
	    9 B(2,1,5)        =    112.786437    -0.000074    -0.359586   112.426852
	   10 B(3,1,4)        =    107.904485     0.000043     0.230032   108.134517
	   11 B(3,1,5)        =    106.806631     0.000016     0.104484   106.911115
	   12 B(4,1,5)        =    112.804527    -0.000078    -0.380079   112.424448
	   13 D(2,1,5,6)      =    -61.600635     0.000005     0.129801   -61.470834
	   14 D(3,1,5,6)      =   -179.962788    -0.000000    -0.026572  -179.989360
	   15 D(4,1,5,6)      =     61.653352    -0.000004    -0.158069    61.495284
	 ---------------------------------------------------------------------------
	Successfully symmetrized geometry.

  ==> Convergence Check <==

  Measures of convergence in internal coordinates in au.
  Criteria marked as inactive (o), active & met (*), and active & unmet ( ).
  ---------------------------------------------------------------------------------------------
   Step     Total Energy     Delta E     MAX Force     RMS Force      MAX Disp      RMS Disp   
  ---------------------------------------------------------------------------------------------
    Convergence Criteria             o    1.50e-05 *    1.00e-05 *    6.00e-05 *    4.00e-05 *
  ---------------------------------------------------------------------------------------------
      2    -115.51733071   -4.96e-04 o    1.89e-03      8.19e-04      8.82e-03      4.24e-03    ~
  ---------------------------------------------------------------------------------------------

	Writing optimization data to binary file.
	Structure for next step:
	Cartesian Geometry (in Angstrom)
	    C    -0.7249052005  -0.0274904909   0.0043342695
	    H    -1.1076101356  -0.5718453825  -0.8613568390
	    H    -1.1192482018   0.9838307913  -0.0308732225
	    H    -1.0992318585  -0.5068391101   0.9111317799
	    O     0.6876638612   0.0803808473  -0.0062610048
	    H     1.0447149961  -0.8101015470   0.0245233113
			--------------------------
			 OPTKING Finished Execution 
			--------------------------

    Structure for next step:
    Molecular point group: c1
    Full point group: C1

    Geometry (in Angstrom), charge = 0, multiplicity = 1:

    C           -0.724937527332    -0.028856944826     0.004470663090
    H           -1.107642462468    -0.573211836448    -0.861220445393
    H           -1.119280528622     0.982464337391    -0.030736828830
    H           -1.099264185332    -0.508205564079     0.911268173537
    O            0.687631534314     0.079014393391    -0.006124611170
    H            1.044682669267    -0.811468000941     0.024659704962

gradient() will perform analytic gradient computation.

*** tstart() called on wr37
*** at Fri Mar 31 14:33:14 2017

    SCF Algorithm Type (re)set to DF.

         ---------------------------------------------------------
                                   SCF
            by Justin Turney, Rob Parrish, and Andy Simmonett
                              RHF Reference
                       16 Threads,  55000 MiB Core
         ---------------------------------------------------------

  ==> Geometry <==

    Molecular point group: c1
    Full point group: C1

    Geometry (in Angstrom), charge = 0, multiplicity = 1:

       Center              X                  Y                   Z               Mass       
    ------------   -----------------  -----------------  -----------------  -----------------
           C         -0.724937527332    -0.028856944826     0.004470663090    12.000000000000
           H         -1.107642462468    -0.573211836448    -0.861220445393     1.007825032070
           H         -1.119280528622     0.982464337391    -0.030736828830     1.007825032070
           H         -1.099264185332    -0.508205564079     0.911268173537     1.007825032070
           O          0.687631534314     0.079014393391    -0.006124611170    15.994914619560
           H          1.044682669267    -0.811468000941     0.024659704962     1.007825032070

  Running in c1 symmetry.

  Rotational constants: A =      4.30473  B =      0.83124  C =      0.80177 [cm^-1]
  Rotational constants: A = 129052.64907  B =  24920.09215  C =  24036.57088 [MHz]
  Nuclear repulsion =   40.399769444882473

  Charge       = 0
  Multiplicity = 1
  Electrons    = 18
  Nalpha       = 9
  Nbeta        = 9

  ==> Algorithm <==

  SCF Algorithm Type is DF.
  DIIS enabled.
  MOM disabled.
  Fractional occupation disabled.
  Guess Type is READ.
  Energy threshold   = 1.00e-10
  Density threshold  = 1.00e-10
  Integral threshold = 0.00e+00

  ==> Primary Basis <==

  Basis Set: file /usr/local/hpc5/psi4conda/envs/p4env/share/psi4/basis/cc-pvtz.gbs
    Number of shells: 44
    Number of basis function: 116
    Number of Cartesian functions: 130
    Spherical Harmonics?: true
    Max angular momentum: 3

  Reading orbitals from file 180, no projection.

  ==> Pre-Iterations <==

   -------------------------------------------------------
    Irrep   Nso     Nmo     Nalpha   Nbeta   Ndocc  Nsocc
   -------------------------------------------------------
     A        116     116       0       0       0       0
   -------------------------------------------------------
    Total     116     116       9       9       9       0
   -------------------------------------------------------

  ==> Integral Setup <==

  ==> DFJK: Density-Fitted J/K Matrices <==

    J tasked:                  Yes
    K tasked:                  Yes
    wK tasked:                  No
    OpenMP threads:             16
    Integrals threads:          16
    Memory (MB):             39339
    Algorithm:                Core
    Integral Cache:           NONE
    Schwarz Cutoff:          1E-12
    Fitting Condition:       1E-12

   => Auxiliary Basis Set <=

  Basis Set: file /usr/local/hpc5/psi4conda/envs/p4env/share/psi4/basis/cc-pvtz-jkfit.gbs
    Number of shells: 90
    Number of basis function: 278
    Number of Cartesian functions: 332
    Spherical Harmonics?: true
    Max angular momentum: 4

  Minimum eigenvalue in the overlap matrix is 1.8332904705E-03.
  Using Symmetric Orthogonalization.

  SCF Guess: Orbitals guess was supplied from a previous computation.

  ==> Iterations <==

                           Total Energy        Delta E     RMS |[F,P]|

   @DF-RHF iter   0:  -115.08684348171843   -1.15087e+02   9.00865e-05 
   @DF-RHF iter   1:  -115.08925997167763   -2.41649e-03   1.50179e-05 
   @DF-RHF iter   2:  -115.08926169637253   -1.72469e-06   7.64694e-06 DIIS
   @DF-RHF iter   3:  -115.08926200322381   -3.06851e-07   2.45697e-06 DIIS
   @DF-RHF iter   4:  -115.08926207147600   -6.82522e-08   5.57569e-07 DIIS
   @DF-RHF iter   5:  -115.08926207668155   -5.20555e-09   1.53346e-07 DIIS
   @DF-RHF iter   6:  -115.08926207704525   -3.63698e-10   4.27610e-08 DIIS
   @DF-RHF iter   7:  -115.08926207706790   -2.26521e-11   9.98080e-09 DIIS
   @DF-RHF iter   8:  -115.08926207706926   -1.36424e-12   2.31722e-09 DIIS
   @DF-RHF iter   9:  -115.08926207706963   -3.69482e-13   5.59961e-10 DIIS
   @DF-RHF iter  10:  -115.08926207706972   -8.52651e-14   1.13582e-10 DIIS
   @DF-RHF iter  11:  -115.08926207706934    3.83693e-13   3.06797e-11 DIIS

  ==> Post-Iterations <==

    Orbital Energies (a.u.)
    -----------------------

    Doubly Occupied:                                                      

       1A    -20.552648     2A    -11.268238     3A     -1.355417  
       4A     -0.923876     5A     -0.689012     6A     -0.618583  
       7A     -0.591265     8A     -0.502022     9A     -0.448976  

    Virtual:                                                              

      10A      0.138525    11A      0.178726    12A      0.220604  
      13A      0.224115    14A      0.291122    15A      0.386764  
      16A      0.404541    17A      0.545527    18A      0.584691  
      19A      0.623976    20A      0.625696    21A      0.639507  
      22A      0.690619    23A      0.704484    24A      0.721689  
      25A      0.833079    26A      0.865296    27A      0.872186  
      28A      0.927807    29A      1.069988    30A      1.101533  
      31A      1.178529    32A      1.190814    33A      1.262901  
      34A      1.272511    35A      1.283404    36A      1.367270  
      37A      1.447299    38A      1.491798    39A      1.523878  
      40A      1.546170    41A      1.584164    42A      1.619437  
      43A      1.777304    44A      2.093350    45A      2.181505  
      46A      2.200951    47A      2.302093    48A      2.325103  
      49A      2.489103    50A      2.510773    51A      2.577023  
      52A      2.805255    53A      2.951610    54A      3.058008  
      55A      3.111672    56A      3.118874    57A      3.145297  
      58A      3.225069    59A      3.245709    60A      3.316158  
      61A      3.316838    62A      3.344801    63A      3.387211  
      64A      3.502709    65A      3.616537    66A      3.634914  
      67A      3.702763    68A      3.710517    69A      3.747402  
      70A      3.763680    71A      3.817687    72A      3.843164  
      73A      3.906170    74A      4.009539    75A      4.028284  
      76A      4.119091    77A      4.161611    78A      4.173389  
      79A      4.249141    80A      4.257674    81A      4.289663  
      82A      4.404633    83A      4.439795    84A      4.468578  
      85A      4.562716    86A      4.584400    87A      4.715383  
      88A      4.787412    89A      4.999180    90A      5.033970  
      91A      5.058276    92A      5.205951    93A      5.275170  
      94A      5.318361    95A      5.376223    96A      5.438322  
      97A      5.550674    98A      5.552722    99A      5.569224  
     100A      5.793416   101A      5.949950   102A      6.196378  
     103A      6.216886   104A      6.254437   105A      6.441232  
     106A      6.646545   107A      7.000728   108A      7.131285  
     109A      7.182677   110A      7.244693   111A      7.363441  
     112A      7.437403   113A      7.602016   114A      7.917713  
     115A     12.139717   116A     13.749681  

    Final Occupation by Irrep:
              A 
    DOCC [     9 ]

  Energy converged.

  @DF-RHF Final Energy:  -115.08926207706934

   => Energetics <=

    Nuclear Repulsion Energy =             40.3997694448824731
    One-Electron Energy =                -237.0779895340822634
    Two-Electron Energy =                  81.5889580121304476
    DFT Exchange-Correlation Energy =       0.0000000000000000
    Empirical Dispersion Energy =           0.0000000000000000
    PCM Polarization Energy =               0.0000000000000000
    EFP Energy =                            0.0000000000000000
    Total Energy =                       -115.0892620770693355



Properties will be evaluated at   0.000000,   0.000000,   0.000000 Bohr

Properties computed using the SCF density matrix

  Nuclear Dipole Moment: (a.u.)
     X:    -2.1355      Y:    -0.8531      Z:     0.0412

  Electronic Dipole Moment: (a.u.)
     X:     1.7664      Y:     0.2566      Z:    -0.0177

  Dipole Moment: (a.u.)
     X:    -0.3692      Y:    -0.5965      Z:     0.0235     Total:     0.7019

  Dipole Moment: (Debye)
     X:    -0.9383      Y:    -1.5161      Z:     0.0597     Total:     1.7840


  //>>>>>>>>>>>>>>>>>>>>>>>>>>>>>>>>>>>//
  //               DFMP2               //
  //<<<<<<<<<<<<<<<<<<<<<<<<<<<<<<<<<<<//

	 --------------------------------------------------------
	                          DF-MP2                         
	      2nd-Order Density-Fitted Moller-Plesset Theory     
	              RMP2 Wavefunction,  16 Threads             
	                                                         
	        Rob Parrish, Justin Turney, Andy Simmonett,      
	           Ed Hohenstein, and C. David Sherrill          
	 --------------------------------------------------------

   => Auxiliary Basis Set <=

  Basis Set: file /usr/local/hpc5/psi4conda/envs/p4env/share/psi4/basis/cc-pvtz-ri.gbs
    Number of shells: 86
    Number of basis function: 282
    Number of Cartesian functions: 342
    Spherical Harmonics?: true
    Max angular momentum: 4

	 --------------------------------------------------------
	                 NBF =   116, NAUX =   282
	 --------------------------------------------------------
	   CLASS    FOCC     OCC    AOCC    AVIR     VIR    FVIR
	   PAIRS       2       9       7     107     107       0
	 --------------------------------------------------------


         ------------------------------------------------------------
                                     CPHF                           
                                  Rob Parrish                       
         ------------------------------------------------------------

  ==> Geometry <==

    Molecular point group: c1
    Full point group: C1

    Geometry (in Angstrom), charge = 0, multiplicity = 1:

       Center              X                  Y                   Z               Mass       
    ------------   -----------------  -----------------  -----------------  -----------------
           C         -0.724937527332    -0.028856944826     0.004470663090    12.000000000000
           H         -1.107642462468    -0.573211836448    -0.861220445393     1.007825032070
           H         -1.119280528622     0.982464337391    -0.030736828830     1.007825032070
           H         -1.099264185332    -0.508205564079     0.911268173537     1.007825032070
           O          0.687631534314     0.079014393391    -0.006124611170    15.994914619560
           H          1.044682669267    -0.811468000941     0.024659704962     1.007825032070

  Nuclear repulsion =   40.399769444882473
  Reference energy  = -115.089262077069336

  ==> Basis Set <==

  Basis Set: file /usr/local/hpc5/psi4conda/envs/p4env/share/psi4/basis/cc-pvtz.gbs
    Number of shells: 44
    Number of basis function: 116
    Number of Cartesian functions: 130
    Spherical Harmonics?: true
    Max angular momentum: 3

  ==> CGRSolver (by Rob Parrish) <==

   Number of roots    =         1
   Preconditioning    =    JACOBI
   Convergence cutoff =     1E-06
   Maximum iterations =       100

  ==> CPHFRHamiltonian (by Rob Parrish) <== 

  ==> DFJK: Density-Fitted J/K Matrices <==

    J tasked:                  Yes
    K tasked:                  Yes
    wK tasked:                  No
    OpenMP threads:             16
    Integrals threads:          16
    Memory (MB):             39339
    Algorithm:                Core
    Integral Cache:           NONE
    Schwarz Cutoff:          1E-12
    Fitting Condition:       1E-12

   => Auxiliary Basis Set <=

  Basis Set: file /usr/local/hpc5/psi4conda/envs/p4env/share/psi4/basis/cc-pvtz-jkfit.gbs
    Number of shells: 90
    Number of basis function: 278
    Number of Cartesian functions: 332
    Spherical Harmonics?: true
    Max angular momentum: 4

  ==> CPHF Iterations <==

  => Iterations <=

             Iter  Converged  Remaining    Residual
  CGR           1          0          1   5.675E-02
  CGR           2          0          1   1.166E-02
  CGR           3          0          1   3.778E-03
  CGR           4          0          1   1.165E-03
  CGR           5          0          1   2.499E-04
  CGR           6          0          1   5.200E-05
  CGR           7          0          1   8.897E-06
  CGR           8          0          1   2.228E-06
  CGR           9          1          0   4.881E-07

    CGRSolver converged.

  ==> DFCorrGrad: Density-Fitted Correlated Gradients <==

    OpenMP threads:             16
    Integrals threads:          16
    Memory (MB):             39339
    Schwarz Cutoff:          0E+00
    Fitting Condition:       1E-12

   => Auxiliary Basis Set <=

  Basis Set: file /usr/local/hpc5/psi4conda/envs/p4env/share/psi4/basis/cc-pvtz-jkfit.gbs
    Number of shells: 90
    Number of basis function: 278
    Number of Cartesian functions: 332
    Spherical Harmonics?: true
    Max angular momentum: 4

	-----------------------------------------------------------
	 ==================> DF-MP2 Energies <==================== 
	-----------------------------------------------------------
	 Reference Energy          =    -115.0892620770693355 [Eh]
	 Singles Energy            =      -0.0000000000000000 [Eh]
	 Same-Spin Energy          =      -0.0982369380400985 [Eh]
	 Opposite-Spin Energy      =      -0.3298583410434643 [Eh]
	 Correlation Energy        =      -0.4280952790835628 [Eh]
	 Total Energy              =    -115.5173573561528997 [Eh]
	-----------------------------------------------------------
	 ================> DF-SCS-MP2 Energies <================== 
	-----------------------------------------------------------
	 SCS Same-Spin Scale       =       0.3333333333333333 [-]
	 SCS Opposite-Spin Scale   =       1.2000000000000000 [-]
	 SCS Same-Spin Energy      =      -0.0327456460133662 [Eh]
	 SCS Opposite-Spin Energy  =      -0.3958300092521571 [Eh]
	 SCS Correlation Energy    =      -0.4285756552655233 [Eh]
	 SCS Total Energy          =    -115.5178377323348542 [Eh]
	-----------------------------------------------------------


  -Total Gradient:
     Atom            X                  Y                   Z
    ------   -----------------  -----------------  -----------------
       1        0.001617438919     0.000228030498    -0.000015015691
       2       -0.000219520895    -0.000169975034    -0.000126717959
       3       -0.000301375644     0.000235232430    -0.000005435760
       4       -0.000212431862    -0.000153796999     0.000134997980
       5       -0.001040232274     0.000282522144    -0.000001525181
       6        0.000156121757    -0.000422013039     0.000013696611


*** tstop() called on wr37 at Fri Mar 31 14:33:40 2017
Module time:
	user time   =      66.25 seconds =       1.10 minutes
	system time =       2.50 seconds =       0.04 minutes
	total time  =         26 seconds =       0.43 minutes
Total time:
	user time   =     216.86 seconds =       3.61 minutes
	system time =      10.66 seconds =       0.18 minutes
	total time  =        105 seconds =       1.75 minutes

			-----------------------------------------
			 OPTKING 2.0: for geometry optimizations 
			  - R.A. King,  Bethel University        
			-----------------------------------------

	Previous internal coordinate definitions found.
	---Fragment 1 Geometry and Gradient---
	 C          -1.3699333901       -0.0545317228        0.0084483289
	 H          -2.0931409072       -1.0832133870       -1.6274707818
	 H          -2.1151336650        1.8565885330       -0.0580841887
	 H          -2.0773082580       -0.9603693353        1.7220472816
	 O           1.2994352802        0.1493155641       -0.0115738378
	 H           1.9741641407       -1.5334522874        0.0466000889
	             0.0016174389        0.0002280305       -0.0000150157
	            -0.0002195209       -0.0001699750       -0.0001267180
	            -0.0003013756        0.0002352324       -0.0000054358
	            -0.0002124319       -0.0001537970        0.0001349980
	            -0.0010402323        0.0002825221       -0.0000015252
	             0.0001561218       -0.0004220130        0.0000136966

	---Fragment 1 Intrafragment Coordinates---
	 - Coordinate -           - BOHR/RAD -       - ANG/DEG -
	 R(1,2)           =         2.063358	       1.091882
	 R(1,3)           =         2.052348	       1.086056
	 R(1,4)           =         2.063333	       1.091869
	 R(1,5)           =         2.677216	       1.416722
	 R(5,6)           =         1.813932	       0.959892
	 B(1,5,6)         =         1.875494	     107.457865
	 B(2,1,3)         =         1.887329	     108.135988
	 B(2,1,4)         =         1.895917	     108.628066
	 B(2,1,5)         =         1.962219	     112.426852
	 B(3,1,4)         =         1.887303	     108.134517
	 B(3,1,5)         =         1.865951	     106.911115
	 B(4,1,5)         =         1.962177	     112.424448
	 D(2,1,5,6)       =        -1.072868	     -61.470834
	 D(3,1,5,6)       =        -3.141407	    -179.989360
	 D(4,1,5,6)       =         1.073295	      61.495284

	Current energy   :      -115.5173573562

	Energy change for the previous step:
		Projected    :        -0.0000245417
		Actual       :        -0.0000266485

	Performing BFGS update.
	Previous computed or guess Hessian on step 1.
	Steps to be used in Hessian update: 2 1
	Taking RFO optimization step.
	Going to follow RFO solution 1.
	Using RFO vector 1.
	Norm of target step-size    0.00498
	Projected energy change by RFO approximation:         0.0000004201

	Back-transformation to cartesian coordinates...
	Successfully converged to displaced geometry.

	--- Internal Coordinate Step in ANG or DEG, aJ/ANG or AJ/DEG ---
	 ---------------------------------------------------------------------------
	   Coordinate                Previous        Force       Change         New 
	   ----------                --------       ------       ------       ------
	    1 R(1,2)          =      1.091882    -0.002160    -0.000469     1.091413
	    2 R(1,3)          =      1.086056    -0.002708    -0.000497     1.085558
	    3 R(1,4)          =      1.091869    -0.002080    -0.000453     1.091416
	    4 R(1,5)          =      1.416722     0.007351     0.001436     1.418157
	    5 R(5,6)          =      0.959892    -0.003707    -0.000296     0.959595
	    6 B(1,5,6)        =    107.457865     0.000002    -0.036648   107.421216
	    7 B(2,1,3)        =    108.135988     0.000010     0.061192   108.197179
	    8 B(2,1,4)        =    108.628066     0.000017     0.126292   108.754358
	    9 B(2,1,5)        =    112.426852    -0.000008    -0.068186   112.358665
	   10 B(3,1,4)        =    108.134517     0.000010     0.062182   108.196699
	   11 B(3,1,5)        =    106.911115    -0.000020    -0.109490   106.801625
	   12 B(4,1,5)        =    112.424448    -0.000008    -0.066609   112.357839
	   13 D(2,1,5,6)      =    -61.470834    -0.000001    -0.041220   -61.512055
	   14 D(3,1,5,6)      =   -179.989360     0.000000    -0.007877  -179.997237
	   15 D(4,1,5,6)      =     61.495284     0.000001     0.023352    61.518636
	 ---------------------------------------------------------------------------
	Successfully symmetrized geometry.

  ==> Convergence Check <==

  Measures of convergence in internal coordinates in au.
  Criteria marked as inactive (o), active & met (*), and active & unmet ( ).
  ---------------------------------------------------------------------------------------------
   Step     Total Energy     Delta E     MAX Force     RMS Force      MAX Disp      RMS Disp   
  ---------------------------------------------------------------------------------------------
    Convergence Criteria             o    1.50e-05 *    1.00e-05 *    6.00e-05 *    4.00e-05 *
  ---------------------------------------------------------------------------------------------
      3    -115.51735736   -2.66e-05 o    8.92e-04      3.08e-04      2.71e-03      1.29e-03    ~
  ---------------------------------------------------------------------------------------------

	Writing optimization data to binary file.
	Structure for next step:
	Cartesian Geometry (in Angstrom)
	    C    -0.7261158739  -0.0292032063   0.0044740162
	    H    -1.1073937395  -0.5730363392  -0.8615837813
	    H    -1.1185323579   0.9823337491  -0.0307323292
	    H    -1.0990341304  -0.5080708240   0.9115607362
	    O     0.6878644189   0.0790391788  -0.0061472045
	    H     1.0444011826  -0.8113261739   0.0247452188
			--------------------------
			 OPTKING Finished Execution 
			--------------------------

    Structure for next step:
    Molecular point group: c1
    Full point group: C1

    Geometry (in Angstrom), charge = 0, multiplicity = 1:

    C           -0.725820418113    -0.029095959639     0.004483438195
    H           -1.107098283727    -0.572929092490    -0.861574359285
    H           -1.118236902191     0.982440995787    -0.030722907230
    H           -1.098738674625    -0.507963577350     0.911570158178
    O            0.688159874636     0.079146425513    -0.006137782534
    H            1.044696638358    -0.811218927170     0.024754640730

gradient() will perform analytic gradient computation.

*** tstart() called on wr37
*** at Fri Mar 31 14:33:40 2017

    SCF Algorithm Type (re)set to DF.

         ---------------------------------------------------------
                                   SCF
            by Justin Turney, Rob Parrish, and Andy Simmonett
                              RHF Reference
                       16 Threads,  55000 MiB Core
         ---------------------------------------------------------

  ==> Geometry <==

    Molecular point group: c1
    Full point group: C1

    Geometry (in Angstrom), charge = 0, multiplicity = 1:

       Center              X                  Y                   Z               Mass       
    ------------   -----------------  -----------------  -----------------  -----------------
           C         -0.725820418113    -0.029095959639     0.004483438195    12.000000000000
           H         -1.107098283727    -0.572929092490    -0.861574359285     1.007825032070
           H         -1.118236902191     0.982440995787    -0.030722907230     1.007825032070
           H         -1.098738674625    -0.507963577350     0.911570158178     1.007825032070
           O          0.688159874636     0.079146425513    -0.006137782534    15.994914619560
           H          1.044696638358    -0.811218927170     0.024754640730     1.007825032070

  Running in c1 symmetry.

  Rotational constants: A =      4.30424  B =      0.83028  C =      0.80094 [cm^-1]
  Rotational constants: A = 129037.73992  B =  24891.05255  C =  24011.70389 [MHz]
  Nuclear repulsion =   40.386668405642951

  Charge       = 0
  Multiplicity = 1
  Electrons    = 18
  Nalpha       = 9
  Nbeta        = 9

  ==> Algorithm <==

  SCF Algorithm Type is DF.
  DIIS enabled.
  MOM disabled.
  Fractional occupation disabled.
  Guess Type is READ.
  Energy threshold   = 1.00e-10
  Density threshold  = 1.00e-10
  Integral threshold = 0.00e+00

  ==> Primary Basis <==

  Basis Set: file /usr/local/hpc5/psi4conda/envs/p4env/share/psi4/basis/cc-pvtz.gbs
    Number of shells: 44
    Number of basis function: 116
    Number of Cartesian functions: 130
    Spherical Harmonics?: true
    Max angular momentum: 3

  Reading orbitals from file 180, no projection.

  ==> Pre-Iterations <==

   -------------------------------------------------------
    Irrep   Nso     Nmo     Nalpha   Nbeta   Ndocc  Nsocc
   -------------------------------------------------------
     A        116     116       0       0       0       0
   -------------------------------------------------------
    Total     116     116       9       9       9       0
   -------------------------------------------------------

  ==> Integral Setup <==

  ==> DFJK: Density-Fitted J/K Matrices <==

    J tasked:                  Yes
    K tasked:                  Yes
    wK tasked:                  No
    OpenMP threads:             16
    Integrals threads:          16
    Memory (MB):             39339
    Algorithm:                Core
    Integral Cache:           NONE
    Schwarz Cutoff:          1E-12
    Fitting Condition:       1E-12

   => Auxiliary Basis Set <=

  Basis Set: file /usr/local/hpc5/psi4conda/envs/p4env/share/psi4/basis/cc-pvtz-jkfit.gbs
    Number of shells: 90
    Number of basis function: 278
    Number of Cartesian functions: 332
    Spherical Harmonics?: true
    Max angular momentum: 4

  Minimum eigenvalue in the overlap matrix is 1.8322178330E-03.
  Using Symmetric Orthogonalization.

  SCF Guess: Orbitals guess was supplied from a previous computation.

  ==> Iterations <==

                           Total Energy        Delta E     RMS |[F,P]|

   @DF-RHF iter   0:  -115.08912735219295   -1.15089e+02   3.60301e-05 
   @DF-RHF iter   1:  -115.08925236147226   -1.25009e-04   5.53450e-06 
   @DF-RHF iter   2:  -115.08925253484510   -1.73373e-07   3.19506e-06 DIIS
   @DF-RHF iter   3:  -115.08925257852087   -4.36758e-08   5.37358e-07 DIIS
   @DF-RHF iter   4:  -115.08925258138355   -2.86268e-09   1.33318e-07 DIIS
   @DF-RHF iter   5:  -115.08925258164433   -2.60783e-10   2.86390e-08 DIIS
   @DF-RHF iter   6:  -115.08925258165871   -1.43814e-11   7.45368e-09 DIIS
   @DF-RHF iter   7:  -115.08925258165935   -6.39488e-13   2.12190e-09 DIIS
   @DF-RHF iter   8:  -115.08925258165935    0.00000e+00   4.49478e-10 DIIS
   @DF-RHF iter   9:  -115.08925258165954   -1.84741e-13   1.32912e-10 DIIS
   @DF-RHF iter  10:  -115.08925258165945    8.52651e-14   2.95027e-11 DIIS

  ==> Post-Iterations <==

    Orbital Energies (a.u.)
    -----------------------

    Doubly Occupied:                                                      

       1A    -20.552484     2A    -11.268199     3A     -1.354925  
       4A     -0.924037     5A     -0.688713     6A     -0.618627  
       7A     -0.590828     8A     -0.502244     9A     -0.449155  

    Virtual:                                                              

      10A      0.138557    11A      0.178827    12A      0.220498  
      13A      0.224061    14A      0.290900    15A      0.386517  
      16A      0.404535    17A      0.545358    18A      0.584506  
      19A      0.624319    20A      0.625770    21A      0.639574  
      22A      0.690673    23A      0.704513    24A      0.721728  
      25A      0.833432    26A      0.865203    27A      0.872386  
      28A      0.927931    29A      1.069781    30A      1.101695  
      31A      1.178241    32A      1.190418    33A      1.263002  
      34A      1.272659    35A      1.283553    36A      1.365946  
      37A      1.447583    38A      1.492552    39A      1.523950  
      40A      1.546288    41A      1.584686    42A      1.619493  
      43A      1.778117    44A      2.093218    45A      2.180993  
      46A      2.200021    47A      2.300826    48A      2.324628  
      49A      2.488780    50A      2.511112    51A      2.576848  
      52A      2.806049    53A      2.951740    54A      3.057128  
      55A      3.112145    56A      3.118021    57A      3.145464  
      58A      3.224913    59A      3.245638    60A      3.316175  
      61A      3.316912    62A      3.344689    63A      3.386765  
      64A      3.502671    65A      3.615896    66A      3.635353  
      67A      3.702910    68A      3.710329    69A      3.747450  
      70A      3.763303    71A      3.817634    72A      3.843337  
      73A      3.906820    74A      4.011811    75A      4.029594  
      76A      4.119019    77A      4.161896    78A      4.173500  
      79A      4.249625    80A      4.257985    81A      4.289807  
      82A      4.403863    83A      4.439921    84A      4.468548  
      85A      4.562833    86A      4.584556    87A      4.714871  
      88A      4.787965    89A      5.000597    90A      5.034660  
      91A      5.059857    92A      5.204997    93A      5.275643  
      94A      5.318883    95A      5.377437    96A      5.443912  
      97A      5.551550    98A      5.553948    99A      5.570032  
     100A      5.792450   101A      5.949591   102A      6.195523  
     103A      6.215593   104A      6.253257   105A      6.438071  
     106A      6.645386   107A      7.001463   108A      7.131671  
     109A      7.183176   110A      7.244656   111A      7.362677  
     112A      7.436567   113A      7.601854   114A      7.917326  
     115A     12.138794   116A     13.753169  

    Final Occupation by Irrep:
              A 
    DOCC [     9 ]

  Energy converged.

  @DF-RHF Final Energy:  -115.08925258165945

   => Energetics <=

    Nuclear Repulsion Energy =             40.3866684056429506
    One-Electron Energy =                -237.0534180573810659
    Two-Electron Energy =                  81.5774970700786639
    DFT Exchange-Correlation Energy =       0.0000000000000000
    Empirical Dispersion Energy =           0.0000000000000000
    PCM Polarization Energy =               0.0000000000000000
    EFP Energy =                            0.0000000000000000
    Total Energy =                       -115.0892525816594514

    Alert: EFP and PCM quantities not currently incorporated into SCF psivars.

Properties will be evaluated at   0.000000,   0.000000,   0.000000 Bohr

Properties computed using the SCF density matrix

  Nuclear Dipole Moment: (a.u.)
     X:    -2.1335      Y:    -0.8524      Z:     0.0412

  Electronic Dipole Moment: (a.u.)
     X:     1.7617      Y:     0.2558      Z:    -0.0177

  Dipole Moment: (a.u.)
     X:    -0.3719      Y:    -0.5966      Z:     0.0236     Total:     0.7034

  Dipole Moment: (Debye)
     X:    -0.9452      Y:    -1.5163      Z:     0.0599     Total:     1.7878


  //>>>>>>>>>>>>>>>>>>>>>>>>>>>>>>>>>>>//
  //               DFMP2               //
  //<<<<<<<<<<<<<<<<<<<<<<<<<<<<<<<<<<<//

	 --------------------------------------------------------
	                          DF-MP2                         
	      2nd-Order Density-Fitted Moller-Plesset Theory     
	              RMP2 Wavefunction,  16 Threads             
	                                                         
	        Rob Parrish, Justin Turney, Andy Simmonett,      
	           Ed Hohenstein, and C. David Sherrill          
	 --------------------------------------------------------

   => Auxiliary Basis Set <=

  Basis Set: file /usr/local/hpc5/psi4conda/envs/p4env/share/psi4/basis/cc-pvtz-ri.gbs
    Number of shells: 86
    Number of basis function: 282
    Number of Cartesian functions: 342
    Spherical Harmonics?: true
    Max angular momentum: 4

	 --------------------------------------------------------
	                 NBF =   116, NAUX =   282
	 --------------------------------------------------------
	   CLASS    FOCC     OCC    AOCC    AVIR     VIR    FVIR
	   PAIRS       2       9       7     107     107       0
	 --------------------------------------------------------


         ------------------------------------------------------------
                                     CPHF                           
                                  Rob Parrish                       
         ------------------------------------------------------------

  ==> Geometry <==

    Molecular point group: c1
    Full point group: C1

    Geometry (in Angstrom), charge = 0, multiplicity = 1:

       Center              X                  Y                   Z               Mass       
    ------------   -----------------  -----------------  -----------------  -----------------
           C         -0.725820418113    -0.029095959639     0.004483438195    12.000000000000
           H         -1.107098283727    -0.572929092490    -0.861574359285     1.007825032070
           H         -1.118236902191     0.982440995787    -0.030722907230     1.007825032070
           H         -1.098738674625    -0.507963577350     0.911570158178     1.007825032070
           O          0.688159874636     0.079146425513    -0.006137782534    15.994914619560
           H          1.044696638358    -0.811218927170     0.024754640730     1.007825032070

  Nuclear repulsion =   40.386668405642951
  Reference energy  = -115.089252581659451

  ==> Basis Set <==

  Basis Set: file /usr/local/hpc5/psi4conda/envs/p4env/share/psi4/basis/cc-pvtz.gbs
    Number of shells: 44
    Number of basis function: 116
    Number of Cartesian functions: 130
    Spherical Harmonics?: true
    Max angular momentum: 3

  ==> CGRSolver (by Rob Parrish) <==

   Number of roots    =         1
   Preconditioning    =    JACOBI
   Convergence cutoff =     1E-06
   Maximum iterations =       100

  ==> CPHFRHamiltonian (by Rob Parrish) <== 

  ==> DFJK: Density-Fitted J/K Matrices <==

    J tasked:                  Yes
    K tasked:                  Yes
    wK tasked:                  No
    OpenMP threads:             16
    Integrals threads:          16
    Memory (MB):             39339
    Algorithm:                Core
    Integral Cache:           NONE
    Schwarz Cutoff:          1E-12
    Fitting Condition:       1E-12

   => Auxiliary Basis Set <=

  Basis Set: file /usr/local/hpc5/psi4conda/envs/p4env/share/psi4/basis/cc-pvtz-jkfit.gbs
    Number of shells: 90
    Number of basis function: 278
    Number of Cartesian functions: 332
    Spherical Harmonics?: true
    Max angular momentum: 4

  ==> CPHF Iterations <==

  => Iterations <=

             Iter  Converged  Remaining    Residual
  CGR           1          0          1   5.670E-02
  CGR           2          0          1   1.166E-02
  CGR           3          0          1   3.824E-03
  CGR           4          0          1   1.171E-03
  CGR           5          0          1   2.508E-04
  CGR           6          0          1   5.233E-05
  CGR           7          0          1   8.989E-06
  CGR           8          0          1   2.250E-06
  CGR           9          1          0   4.927E-07

    CGRSolver converged.

  ==> DFCorrGrad: Density-Fitted Correlated Gradients <==

    OpenMP threads:             16
    Integrals threads:          16
    Memory (MB):             39339
    Schwarz Cutoff:          0E+00
    Fitting Condition:       1E-12

   => Auxiliary Basis Set <=

[...]
    Fitting Condition:       1E-12

   => Auxiliary Basis Set <=

  Basis Set: file /usr/local/hpc5/psi4conda/envs/p4env/share/psi4/basis/cc-pvtz-jkfit.gbs
    Number of shells: 90
    Number of basis function: 278
    Number of Cartesian functions: 332
    Spherical Harmonics?: true
    Max angular momentum: 4

  Minimum eigenvalue in the overlap matrix is 1.8320866382E-03.
  Using Symmetric Orthogonalization.

  SCF Guess: Orbitals guess was supplied from a previous computation.

  ==> Iterations <==

                           Total Energy        Delta E     RMS |[F,P]|

   @DF-RHF iter   0:  -115.08925981309910   -1.15089e+02   6.47826e-07 
   @DF-RHF iter   1:  -115.08925183593216    7.97717e-06   7.89589e-08 
   @DF-RHF iter   2:  -115.08925183599082   -5.86624e-11   2.99109e-08 DIIS
   @DF-RHF iter   3:  -115.08925183599828   -7.46070e-12   1.49150e-08 DIIS
   @DF-RHF iter   4:  -115.08925183600012   -1.83320e-12   2.77715e-09 DIIS
   @DF-RHF iter   5:  -115.08925183600005    7.10543e-14   7.36817e-10 DIIS
   @DF-RHF iter   6:  -115.08925183600012   -7.10543e-14   2.14720e-10 DIIS
   @DF-RHF iter   7:  -115.08925183600034   -2.27374e-13   6.17445e-11 DIIS

  ==> Post-Iterations <==

    Orbital Energies (a.u.)
    -----------------------

    Doubly Occupied:                                                      

       1A    -20.552444     2A    -11.268208     3A     -1.354808  
       4A     -0.924078     5A     -0.688655     6A     -0.618611  
       7A     -0.590730     8A     -0.502289     9A     -0.449193  

    Virtual:                                                              

      10A      0.138567    11A      0.178843    12A      0.220480  
      13A      0.224046    14A      0.290854    15A      0.386475  
      16A      0.404527    17A      0.545336    18A      0.584433  
      19A      0.624380    20A      0.625788    21A      0.639581  
      22A      0.690695    23A      0.704481    24A      0.721749  
      25A      0.833503    26A      0.865221    27A      0.872409  
      28A      0.927992    29A      1.069736    30A      1.101687  
      31A      1.178182    32A      1.190350    33A      1.263002  
      34A      1.272625    35A      1.283533    36A      1.365724  
      37A      1.447614    38A      1.492657    39A      1.523966  
      40A      1.546271    41A      1.584714    42A      1.619615  
      43A      1.778241    44A      2.093194    45A      2.180885  
      46A      2.199809    47A      2.300618    48A      2.324495  
      49A      2.488713    50A      2.511142    51A      2.576787  
      52A      2.806247    53A      2.951715    54A      3.056943  
      55A      3.112226    56A      3.117867    57A      3.145538  
      58A      3.224930    59A      3.245588    60A      3.316169  
      61A      3.316916    62A      3.344672    63A      3.386676  
      64A      3.502555    65A      3.615775    66A      3.635477  
      67A      3.702953    68A      3.710227    69A      3.747436  
      70A      3.763172    71A      3.817490    72A      3.843307  
      73A      3.907011    74A      4.012197    75A      4.029800  
      76A      4.119003    77A      4.161939    78A      4.173508  
      79A      4.249688    80A      4.257956    81A      4.289883  
      82A      4.403675    83A      4.440003    84A      4.468641  
      85A      4.562801    86A      4.584529    87A      4.714734  
      88A      4.788076    89A      5.000738    90A      5.034908  
      91A      5.060073    92A      5.204780    93A      5.275703  
      94A      5.318998    95A      5.377462    96A      5.444855  
      97A      5.551569    98A      5.554131    99A      5.570195  
     100A      5.792223   101A      5.949452   102A      6.195296  
     103A      6.215206   104A      6.253006   105A      6.437382  
     106A      6.645182   107A      7.001801   108A      7.131771  
     109A      7.183520   110A      7.244533   111A      7.362467  
     112A      7.436265   113A      7.601852   114A      7.917372  
     115A     12.138948   116A     13.753179  

    Final Occupation by Irrep:
              A 
    DOCC [     9 ]

  Energy converged.

  @DF-RHF Final Energy:  -115.08925183600034

   => Energetics <=

    Nuclear Repulsion Energy =             40.3828384097900752
    One-Electron Energy =                -237.0461501402137401
    Two-Electron Energy =                  81.5740598944233142
    DFT Exchange-Correlation Energy =       0.0000000000000000
    Empirical Dispersion Energy =           0.0000000000000000
    PCM Polarization Energy =               0.0000000000000000
    EFP Energy =                            0.0000000000000000
    Total Energy =                       -115.0892518360003436

    Alert: EFP and PCM quantities not currently incorporated into SCF psivars.

Properties will be evaluated at   0.000000,   0.000000,   0.000000 Bohr

Properties computed using the SCF density matrix

  Nuclear Dipole Moment: (a.u.)
     X:    -2.1332      Y:    -0.8521      Z:     0.0413

  Electronic Dipole Moment: (a.u.)
     X:     1.7608      Y:     0.2556      Z:    -0.0177

  Dipole Moment: (a.u.)
     X:    -0.3724      Y:    -0.5965      Z:     0.0236     Total:     0.7036

  Dipole Moment: (Debye)
     X:    -0.9465      Y:    -1.5163      Z:     0.0600     Total:     1.7885


  //>>>>>>>>>>>>>>>>>>>>>>>>>>>>>>>>>>>//
  //               DFMP2               //
  //<<<<<<<<<<<<<<<<<<<<<<<<<<<<<<<<<<<//

	 --------------------------------------------------------
	                          DF-MP2                         
	      2nd-Order Density-Fitted Moller-Plesset Theory     
	              RMP2 Wavefunction,  16 Threads             
	                                                         
	        Rob Parrish, Justin Turney, Andy Simmonett,      
	           Ed Hohenstein, and C. David Sherrill          
	 --------------------------------------------------------

   => Auxiliary Basis Set <=

  Basis Set: file /usr/local/hpc5/psi4conda/envs/p4env/share/psi4/basis/cc-pvtz-ri.gbs
    Number of shells: 86
    Number of basis function: 282
    Number of Cartesian functions: 342
    Spherical Harmonics?: true
    Max angular momentum: 4

	 --------------------------------------------------------
	                 NBF =   116, NAUX =   282
	 --------------------------------------------------------
	   CLASS    FOCC     OCC    AOCC    AVIR     VIR    FVIR
	   PAIRS       2       9       7     107     107       0
	 --------------------------------------------------------


         ------------------------------------------------------------
                                     CPHF                           
                                  Rob Parrish                       
         ------------------------------------------------------------

  ==> Geometry <==

    Molecular point group: c1
    Full point group: C1

    Geometry (in Angstrom), charge = 0, multiplicity = 1:

       Center              X                  Y                   Z               Mass       
    ------------   -----------------  -----------------  -----------------  -----------------
           C         -0.726034583426    -0.029112680939     0.004493291581    12.000000000000
           H         -1.107094418177    -0.572882198611    -0.861591773846     1.007825032070
           H         -1.118069848546     0.982524897947    -0.030714915281     1.007825032070
           H         -1.098725257575    -0.507926220663     0.911595585927     1.007825032070
           O          0.688298058359     0.079139752979    -0.006147479214    15.994914619560
           H          1.044869255839    -0.811082084291     0.024775206364     1.007825032070

  Nuclear repulsion =   40.382838409790075
  Reference energy  = -115.089251836000344

  ==> Basis Set <==

  Basis Set: file /usr/local/hpc5/psi4conda/envs/p4env/share/psi4/basis/cc-pvtz.gbs
    Number of shells: 44
    Number of basis function: 116
    Number of Cartesian functions: 130
    Spherical Harmonics?: true
    Max angular momentum: 3

  ==> CGRSolver (by Rob Parrish) <==

   Number of roots    =         1
   Preconditioning    =    JACOBI
   Convergence cutoff =     1E-06
   Maximum iterations =       100

  ==> CPHFRHamiltonian (by Rob Parrish) <== 

  ==> DFJK: Density-Fitted J/K Matrices <==

    J tasked:                  Yes
    K tasked:                  Yes
    wK tasked:                  No
    OpenMP threads:             16
    Integrals threads:          16
    Memory (MB):             39339
    Algorithm:                Core
    Integral Cache:           NONE
    Schwarz Cutoff:          1E-12
    Fitting Condition:       1E-12

   => Auxiliary Basis Set <=

  Basis Set: file /usr/local/hpc5/psi4conda/envs/p4env/share/psi4/basis/cc-pvtz-jkfit.gbs
    Number of shells: 90
    Number of basis function: 278
    Number of Cartesian functions: 332
    Spherical Harmonics?: true
    Max angular momentum: 4

  ==> CPHF Iterations <==

  => Iterations <=

             Iter  Converged  Remaining    Residual
  CGR           1          0          1   5.669E-02
  CGR           2          0          1   1.166E-02
  CGR           3          0          1   3.835E-03
  CGR           4          0          1   1.172E-03
  CGR           5          0          1   2.510E-04
  CGR           6          0          1   5.240E-05
  CGR           7          0          1   9.008E-06
  CGR           8          0          1   2.255E-06
  CGR           9          1          0   4.936E-07

    CGRSolver converged.

  ==> DFCorrGrad: Density-Fitted Correlated Gradients <==

    OpenMP threads:             16
    Integrals threads:          16
    Memory (MB):             39339
    Schwarz Cutoff:          0E+00
    Fitting Condition:       1E-12

   => Auxiliary Basis Set <=

  Basis Set: file /usr/local/hpc5/psi4conda/envs/p4env/share/psi4/basis/cc-pvtz-jkfit.gbs
    Number of shells: 90
    Number of basis function: 278
    Number of Cartesian functions: 332
    Spherical Harmonics?: true
    Max angular momentum: 4

	-----------------------------------------------------------
	 ==================> DF-MP2 Energies <==================== 
	-----------------------------------------------------------
	 Reference Energy          =    -115.0892518360003436 [Eh]
	 Singles Energy            =      -0.0000000000000000 [Eh]
	 Same-Spin Energy          =      -0.0982339902463273 [Eh]
	 Opposite-Spin Energy      =      -0.3298745643741007 [Eh]
	 Correlation Energy        =      -0.4281085546204281 [Eh]
	 Total Energy              =    -115.5173603906207660 [Eh]
	-----------------------------------------------------------
	 ================> DF-SCS-MP2 Energies <================== 
	-----------------------------------------------------------
	 SCS Same-Spin Scale       =       0.3333333333333333 [-]
	 SCS Opposite-Spin Scale   =       1.2000000000000000 [-]
	 SCS Same-Spin Energy      =      -0.0327446634154424 [Eh]
	 SCS Opposite-Spin Energy  =      -0.3958494772489209 [Eh]
	 SCS Correlation Energy    =      -0.4285941406643634 [Eh]
	 SCS Total Energy          =    -115.5178459766647023 [Eh]
	-----------------------------------------------------------


  -Total Gradient:
     Atom            X                  Y                   Z
    ------   -----------------  -----------------  -----------------
       1        0.000002771139    -0.000005761164     0.000000147152
       2       -0.000000206939     0.000000330091    -0.000000290591
       3        0.000002459905     0.000001073845    -0.000000044399
       4       -0.000000200483     0.000000372824     0.000000293078
       5       -0.000001481852     0.000003444249    -0.000000074750
       6       -0.000003341769     0.000000540156    -0.000000030490


*** tstop() called on wr37 at Fri Mar 31 14:34:13 2017
Module time:
	user time   =      63.36 seconds =       1.06 minutes
	system time =       2.27 seconds =       0.04 minutes
	total time  =         12 seconds =       0.20 minutes
Total time:
	user time   =     400.86 seconds =       6.68 minutes
	system time =      17.51 seconds =       0.29 minutes
	total time  =        138 seconds =       2.30 minutes

			-----------------------------------------
			 OPTKING 2.0: for geometry optimizations 
			  - R.A. King,  Bethel University        
			-----------------------------------------

	Previous internal coordinate definitions found.
	---Fragment 1 Geometry and Gradient---
	 C          -1.3720065257       -0.0550149940        0.0084910905
	 H          -2.0921052536       -1.0825904618       -1.6281724909
	 H          -2.1128458112        1.8567029759       -0.0580427781
	 H          -2.0762898321       -0.9598414528        1.7226660013
	 O           1.3006948281        0.1495524594       -0.0116170521
	 H           1.9745167382       -1.5327230106        0.0468183549
	             0.0000027711       -0.0000057612        0.0000001472
	            -0.0000002069        0.0000003301       -0.0000002906
	             0.0000024599        0.0000010738       -0.0000000444
	            -0.0000002005        0.0000003728        0.0000002931
	            -0.0000014819        0.0000034442       -0.0000000747
	            -0.0000033418        0.0000005402       -0.0000000305

	---Fragment 1 Intrafragment Coordinates---
	 - Coordinate -           - BOHR/RAD -       - ANG/DEG -
	 R(1,2)           =         2.062310	       1.091327
	 R(1,3)           =         2.051325	       1.085515
	 R(1,4)           =         2.062310	       1.091327
	 R(1,5)           =         2.680594	       1.418509
	 R(5,6)           =         1.813147	       0.959476
	 B(1,5,6)         =         1.874954	     107.426930
	 B(2,1,3)         =         1.888631	     108.210560
	 B(2,1,4)         =         1.898412	     108.770994
	 B(2,1,5)         =         1.960824	     112.346965
	 B(3,1,4)         =         1.888630	     108.210551
	 B(3,1,5)         =         1.863691	     106.781602
	 B(4,1,5)         =         1.960824	     112.346950
	 D(2,1,5,6)       =        -1.073682	     -61.517436
	 D(3,1,5,6)       =         3.141593	     180.000000
	 D(4,1,5,6)       =         1.073693	      61.518102

	Current energy   :      -115.5173603906

	Energy change for the previous step:
		Projected    :        -0.0000000083
		Actual       :        -0.0000000012
	Energy ratio indicates iffy step: Trust radius decreased to 2.500e-01.


	Performing BFGS update.
	Previous computed or guess Hessian on step 1.
	Denominators (dg)(dq) or (dq)(dq) are very small.
	 Skipping Hessian update for step 5.
	Steps to be used in Hessian update: 4 3
	Taking RFO optimization step.
	Going to follow RFO solution 1.
	Using RFO vector 1.
	Norm of target step-size    0.00005
	Projected energy change by RFO approximation:        -0.0000000005

	Back-transformation to cartesian coordinates...
	Successfully converged to displaced geometry.
	First geometry is closer to target in internal coordinates, so am using that one.
	First geometry has RMS(Delta(q)) = 7.75e-07

	--- Internal Coordinate Step in ANG or DEG, aJ/ANG or AJ/DEG ---
	 ---------------------------------------------------------------------------
	   Coordinate                Previous        Force       Change         New 
	   ----------                --------       ------       ------       ------
	    1 R(1,2)          =      1.091327    -0.000001    -0.000000     1.091327
	    2 R(1,3)          =      1.085515    -0.000001    -0.000001     1.085514
	    3 R(1,4)          =      1.091327    -0.000001    -0.000000     1.091327
	    4 R(1,5)          =      1.418509     0.000037     0.000005     1.418514
	    5 R(5,6)          =      0.959476     0.000014     0.000002     0.959478
	    6 B(1,5,6)        =    107.426930     0.000000     0.001742   107.428672
	    7 B(2,1,3)        =    108.210560    -0.000000    -0.000145   108.210415
	    8 B(2,1,4)        =    108.770994    -0.000000    -0.000438   108.770556
	    9 B(2,1,5)        =    112.346965    -0.000000    -0.000433   112.346531
	   10 B(3,1,4)        =    108.210551    -0.000000    -0.000135   108.210416
	   11 B(3,1,5)        =    106.781602     0.000000     0.001624   106.783225
	   12 B(4,1,5)        =    112.346950    -0.000000    -0.000420   112.346530
	   13 D(2,1,5,6)      =    -61.517436     0.000000     0.000430   -61.517005
	   14 D(3,1,5,6)      =    180.000000    -0.000000     0.000000   180.000000
	   15 D(4,1,5,6)      =     61.518102    -0.000000    -0.000794    61.517307
	 ---------------------------------------------------------------------------
	Successfully symmetrized geometry.

  ==> Convergence Check <==

  Measures of convergence in internal coordinates in au.
  Criteria marked as inactive (o), active & met (*), and active & unmet ( ).
  ---------------------------------------------------------------------------------------------
   Step     Total Energy     Delta E     MAX Force     RMS Force      MAX Disp      RMS Disp   
  ---------------------------------------------------------------------------------------------
    Convergence Criteria             o    1.50e-05 *    1.00e-05 *    6.00e-05 *    4.00e-05 *
  ---------------------------------------------------------------------------------------------
      6    -115.51736039   -1.17e-09 o    5.26e-06 *    2.29e-06 *    3.04e-05 *    1.23e-05 *  ~
  ---------------------------------------------------------------------------------------------


  **** Optimization is complete! (in 6 steps) ****

  ==> Optimization Summary <==

  Measures of convergence in internal coordinates in au.
  --------------------------------------------------------------------------------------------------------------- ~
   Step         Total Energy             Delta E       MAX Force       RMS Force        MAX Disp        RMS Disp  ~
  --------------------------------------------------------------------------------------------------------------- ~
      1    -115.516835182999   -115.516835182999      0.01335587      0.00516054      0.02767278      0.01384885  ~
      2    -115.517330707684     -0.000495524686      0.00189379      0.00081862      0.00882011      0.00423977  ~
      3    -115.517357356153     -0.000026648468      0.00089223      0.00030783      0.00271283      0.00128531  ~
      4    -115.517360283142     -0.000002926989      0.00020586      0.00006605      0.00068764      0.00025293  ~
      5    -115.517360389451     -0.000000106309      0.00001570      0.00000691      0.00009345      0.00003636  ~
      6    -115.517360390621     -0.000000001170      0.00000526      0.00000229      0.00003040      0.00001228  ~
  --------------------------------------------------------------------------------------------------------------- ~

	Writing optimization data to binary file.
	Final energy is   -115.5173603906208
	Final (previous) structure:
	Cartesian Geometry (in Angstrom)
	    C    -0.7260345834  -0.0291126809   0.0044932916
	    H    -1.1070944182  -0.5728821986  -0.8615917738
	    H    -1.1180698485   0.9825248979  -0.0307149153
	    H    -1.0987252576  -0.5079262207   0.9115955859
	    O     0.6882980584   0.0791397530  -0.0061474792
	    H     1.0448692558  -0.8110820843   0.0247752064
	Saving final (previous) structure.
			--------------------------
			 OPTKING Finished Execution 
			--------------------------

    Final optimized geometry and variables:
    Molecular point group: c1
    Full point group: C1

    Geometry (in Angstrom), charge = 0, multiplicity = 1:

    C           -0.726034583426    -0.029112680939     0.004493291581
    H           -1.107094418177    -0.572882198611    -0.861591773846
    H           -1.118069848546     0.982524897947    -0.030714915281
    H           -1.098725257575    -0.507926220663     0.911595585927
    O            0.688298058359     0.079139752979    -0.006147479214
    H            1.044869255839    -0.811082084291     0.024775206364

	Cleaning optimization helper files.

*** Psi4 exiting successfully. Buy a developer a beer!
