
    -----------------------------------------------------------------------
          Psi4: An Open-Source Ab Initio Electronic Structure Package
                               Psi4 1.1a2.dev170 

                         Git: Rev {master} e4fcd91 dirty


    J. M. Turney, A. C. Simmonett, R. M. Parrish, E. G. Hohenstein,
    F. A. Evangelista, J. T. Fermann, B. J. Mintz, L. A. Burns, J. J. Wilke,
    M. L. Abrams, N. J. Russ, M. L. Leininger, C. L. Janssen, E. T. Seidl,
    W. D. Allen, H. F. Schaefer, R. A. King, E. F. Valeev, C. D. Sherrill,
    and T. D. Crawford, WIREs Comput. Mol. Sci. 2, 556-565 (2012)
    (doi: 10.1002/wcms.93)


                         Additional Contributions by
    A. E. DePrince, U. Bozkaya, A. Yu. Sokolov, D. G. A. Smith, R. Di Remigio,
    R. M. Richard, J. F. Gonthier, H. R. McAlexander, M. Saitow, and
    B. P. Pritchard
    -----------------------------------------------------------------------


    Psi4 started on: Friday, 31 March 2017 02:43PM

    Process ID:   9217
    PSIDATADIR: /usr/local/hpc5/psi4conda/envs/p4env/share/psi4
    Memory:     500.0 MiB
    Threads:    16
    
  ==> Input File <==

--------------------------------------------------------------------------
memory 55 Gb

molecule molecule_1_psi {
0 1
    C           -0.726034583426    -0.029112680939     0.004493291581
    H           -1.107094418177    -0.572882198611    -0.861591773846
    H           -1.118069848546     0.982524897947    -0.030714915281
    H           -1.098725257575    -0.507926220663     0.911595585927
    O            0.688298058359     0.079139752979    -0.006147479214
    H            1.044869255839    -0.811082084291     0.024775206364
}

set globals {
  reference rhf
  basis cc-pvtz
  freeze_core true
}
frequency('mp2')
--------------------------------------------------------------------------

  Memory set to  55.000 GiB by Python script.
hessian() will perform frequency computation by finite difference of analytic gradients.

-------------------------------------------------------------

  Using finite-differences of gradients to determine vibrational frequencies and 
  normal modes.  Resulting frequencies are only valid at stationary points.
	Generating geometries for use with 3-point formula.
	Displacement size will be 5.00e-03.
	Number of atoms is 6.
	Number of irreps is 1.
	Number of SALCS is 12.
	Index of salcs per irrep:
	 1 :  0  1  2  3  4  5  6  7  8  9  10  11 
	Number of SALC's per irrep:
		 Irrep 1: 12
	Number of geometries (including reference) is 25.
	Number of displacements per irrep:
	  Irrep 1: 24

-------------------------------------------------------------

  //>>>>>>>>>>>>>>>>>>>>>>>>>>>>>>>>>>>//
  //    Loading displacement 1 of 25   //
  //<<<<<<<<<<<<<<<<<<<<<<<<<<<<<<<<<<<//
gradient() will perform analytic gradient computation.

*** tstart() called on wr27
*** at Fri Mar 31 14:43:41 2017

    SCF Algorithm Type (re)set to DF.

         ---------------------------------------------------------
                                   SCF
            by Justin Turney, Rob Parrish, and Andy Simmonett
                              RHF Reference
                       16 Threads,  55000 MiB Core
         ---------------------------------------------------------

  ==> Geometry <==

    Molecular point group: c1
    Full point group: C1

    Geometry (in Angstrom), charge = 0, multiplicity = 1:

       Center              X                  Y                   Z               Mass       
    ------------   -----------------  -----------------  -----------------  -----------------
           C         -0.726638330770    -0.029124320206     0.004495140343    12.000000000000
           H         -1.106725361695    -0.572900075673    -0.861588876308     1.007825032070
           H         -1.117723617881     0.982506968265    -0.030712220753     1.007825032070
           H         -1.098352737820    -0.507943700328     0.911598452561     1.007825032070
           O          0.688658834690     0.079150787001    -0.006149239536    15.994914619560
           H          1.045244382944    -0.811065329057     0.024772672347     1.007825032070

  Running in c1 symmetry.

  Rotational constants: A =      4.30434  B =      0.82931  C =      0.80005 [cm^-1]
  Rotational constants: A = 129040.81043  B =  24862.07926  C =  23985.01961 [MHz]
  Nuclear repulsion =   40.372653554734285

  Charge       = 0
  Multiplicity = 1
  Electrons    = 18
  Nalpha       = 9
  Nbeta        = 9

  ==> Algorithm <==

  SCF Algorithm Type is DF.
  DIIS enabled.
  MOM disabled.
  Fractional occupation disabled.
  Guess Type is SAD.
  Energy threshold   = 1.00e-10
  Density threshold  = 1.00e-10
  Integral threshold = 0.00e+00

  ==> Primary Basis <==

  Basis Set: file /usr/local/hpc5/psi4conda/envs/p4env/share/psi4/basis/cc-pvtz.gbs
    Number of shells: 44
    Number of basis function: 116
    Number of Cartesian functions: 130
    Spherical Harmonics?: true
    Max angular momentum: 3

  ==> Pre-Iterations <==

   -------------------------------------------------------
    Irrep   Nso     Nmo     Nalpha   Nbeta   Ndocc  Nsocc
   -------------------------------------------------------
     A        116     116       0       0       0       0
   -------------------------------------------------------
    Total     116     116       9       9       9       0
   -------------------------------------------------------

  ==> Integral Setup <==

  ==> DFJK: Density-Fitted J/K Matrices <==

    J tasked:                  Yes
    K tasked:                  Yes
    wK tasked:                  No
    OpenMP threads:             16
    Integrals threads:          16
    Memory (MB):             39339
    Algorithm:                Core
    Integral Cache:           NONE
    Schwarz Cutoff:          1E-12
    Fitting Condition:       1E-12

   => Auxiliary Basis Set <=

  Basis Set: file /usr/local/hpc5/psi4conda/envs/p4env/share/psi4/basis/cc-pvtz-jkfit.gbs
    Number of shells: 90
    Number of basis function: 278
    Number of Cartesian functions: 332
    Spherical Harmonics?: true
    Max angular momentum: 4

  Minimum eigenvalue in the overlap matrix is 1.8312248455E-03.
  Using Symmetric Orthogonalization.

  SCF Guess: Superposition of Atomic Densities via on-the-fly atomic UHF.

  ==> Iterations <==

                           Total Energy        Delta E     RMS |[F,P]|

   @DF-RHF iter   0:  -115.45108353063094   -1.15451e+02   2.13239e-02 
   @DF-RHF iter   1:  -114.98454009177163    4.66543e-01   4.03018e-03 
   @DF-RHF iter   2:  -115.05717043971879   -7.26303e-02   2.59941e-03 DIIS
   @DF-RHF iter   3:  -115.08726852163711   -3.00981e-02   3.95822e-04 DIIS
   @DF-RHF iter   4:  -115.08910551745660   -1.83700e-03   9.18867e-05 DIIS
   @DF-RHF iter   5:  -115.08923183903367   -1.26322e-04   2.26058e-05 DIIS
   @DF-RHF iter   6:  -115.08923926595742   -7.42692e-06   5.66936e-06 DIIS
   @DF-RHF iter   7:  -115.08923960952383   -3.43566e-07   1.43373e-06 DIIS
   @DF-RHF iter   8:  -115.08923963443240   -2.49086e-08   3.20768e-07 DIIS
   @DF-RHF iter   9:  -115.08923963584979   -1.41739e-09   7.35231e-08 DIIS
   @DF-RHF iter  10:  -115.08923963594793   -9.81402e-11   1.63624e-08 DIIS
   @DF-RHF iter  11:  -115.08923963595335   -5.41434e-12   2.84572e-09 DIIS
   @DF-RHF iter  12:  -115.08923963595338   -2.84217e-14   6.60893e-10 DIIS
   @DF-RHF iter  13:  -115.08923963595301    3.69482e-13   1.76024e-10 DIIS
   @DF-RHF iter  14:  -115.08923963595313   -1.27898e-13   5.67507e-11 DIIS

  ==> Post-Iterations <==

    Orbital Energies (a.u.)
    -----------------------

    Doubly Occupied:                                                      

       1A    -20.552341     2A    -11.268177     3A     -1.354412  
       4A     -0.924188     5A     -0.688426     6A     -0.618592  
       7A     -0.590481     8A     -0.502426     9A     -0.449275  

    Virtual:                                                              

      10A      0.138579    11A      0.178882    12A      0.220430  
      13A      0.224019    14A      0.290710    15A      0.386386  
      16A      0.404458    17A      0.545220    18A      0.584203  
      19A      0.624595    20A      0.625872    21A      0.639617  
      22A      0.690752    23A      0.704473    24A      0.721841  
      25A      0.833671    26A      0.865249    27A      0.872456  
      28A      0.928165    29A      1.069646    30A      1.101724  
      31A      1.177987    32A      1.190130    33A      1.263010  
      34A      1.272702    35A      1.283568    36A      1.365140  
      37A      1.447765    38A      1.493093    39A      1.524060  
      40A      1.546255    41A      1.584810    42A      1.619637  
      43A      1.778788    44A      2.093005    45A      2.180589  
      46A      2.199093    47A      2.300005    48A      2.324312  
      49A      2.488628    50A      2.511118    51A      2.576605  
      52A      2.806856    53A      2.951557    54A      3.056425  
      55A      3.112556    56A      3.117341    57A      3.145768  
      58A      3.224791    59A      3.245497    60A      3.316173  
      61A      3.317025    62A      3.344791    63A      3.386358  
      64A      3.502340    65A      3.615400    66A      3.635736  
      67A      3.703195    68A      3.709995    69A      3.747260  
      70A      3.762879    71A      3.817331    72A      3.843514  
      73A      3.907458    74A      4.013464    75A      4.030638  
      76A      4.118943    77A      4.161946    78A      4.173495  
      79A      4.249808    80A      4.257929    81A      4.289987  
      82A      4.403243    83A      4.440131    84A      4.468816  
      85A      4.562779    86A      4.584551    87A      4.714445  
      88A      4.788724    89A      5.001516    90A      5.034957  
      91A      5.060876    92A      5.204365    93A      5.275995  
      94A      5.319438    95A      5.377844    96A      5.448287  
      97A      5.552010    98A      5.555116    99A      5.570998  
     100A      5.791582   101A      5.949113   102A      6.194741  
     103A      6.214120   104A      6.252446   105A      6.435114  
     106A      6.644492   107A      7.001796   108A      7.131833  
     109A      7.183299   110A      7.244389   111A      7.361913  
     112A      7.435107   113A      7.601977   114A      7.916798  
     115A     12.136192   116A     13.755791  

    Final Occupation by Irrep:
              A 
    DOCC [     9 ]

  Energy converged.

  @DF-RHF Final Energy:  -115.08923963595313

   => Energetics <=

    Nuclear Repulsion Energy =             40.3726535547342849
    One-Electron Energy =                -237.0271500516016943
    Two-Electron Energy =                  81.5652568609142747
    DFT Exchange-Correlation Energy =       0.0000000000000000
    Empirical Dispersion Energy =           0.0000000000000000
    PCM Polarization Energy =               0.0000000000000000
    EFP Energy =                            0.0000000000000000
    Total Energy =                       -115.0892396359531347



Properties will be evaluated at   0.000000,   0.000000,   0.000000 Bohr

Properties computed using the SCF density matrix

  Nuclear Dipole Moment: (a.u.)
     X:    -2.1318      Y:    -0.8522      Z:     0.0413

  Electronic Dipole Moment: (a.u.)
     X:     1.7578      Y:     0.2555      Z:    -0.0177

  Dipole Moment: (a.u.)
     X:    -0.3740      Y:    -0.5966      Z:     0.0236     Total:     0.7046

  Dipole Moment: (Debye)
     X:    -0.9507      Y:    -1.5164      Z:     0.0600     Total:     1.7908


  //>>>>>>>>>>>>>>>>>>>>>>>>>>>>>>>>>>>//
  //               DFMP2               //
  //<<<<<<<<<<<<<<<<<<<<<<<<<<<<<<<<<<<//

	 --------------------------------------------------------
	                          DF-MP2                         
	      2nd-Order Density-Fitted Moller-Plesset Theory     
	              RMP2 Wavefunction,  16 Threads             
	                                                         
	        Rob Parrish, Justin Turney, Andy Simmonett,      
	           Ed Hohenstein, and C. David Sherrill          
	 --------------------------------------------------------

   => Auxiliary Basis Set <=

  Basis Set: file /usr/local/hpc5/psi4conda/envs/p4env/share/psi4/basis/cc-pvtz-ri.gbs
    Number of shells: 86
    Number of basis function: 282
    Number of Cartesian functions: 342
    Spherical Harmonics?: true
    Max angular momentum: 4

	 --------------------------------------------------------
	                 NBF =   116, NAUX =   282
	 --------------------------------------------------------
	   CLASS    FOCC     OCC    AOCC    AVIR     VIR    FVIR
	   PAIRS       2       9       7     107     107       0
	 --------------------------------------------------------


         ------------------------------------------------------------
                                     CPHF                           
                                  Rob Parrish                       
         ------------------------------------------------------------

  ==> Geometry <==

    Molecular point group: c1
    Full point group: C1

    Geometry (in Angstrom), charge = 0, multiplicity = 1:

       Center              X                  Y                   Z               Mass       
    ------------   -----------------  -----------------  -----------------  -----------------
           C         -0.726638330770    -0.029124320206     0.004495140343    12.000000000000
           H         -1.106725361695    -0.572900075673    -0.861588876308     1.007825032070
           H         -1.117723617881     0.982506968265    -0.030712220753     1.007825032070
           H         -1.098352737820    -0.507943700328     0.911598452561     1.007825032070
           O          0.688658834690     0.079150787001    -0.006149239536    15.994914619560
           H          1.045244382944    -0.811065329057     0.024772672347     1.007825032070

  Nuclear repulsion =   40.372653554734285
  Reference energy  = -115.089239635953135

  ==> Basis Set <==

  Basis Set: file /usr/local/hpc5/psi4conda/envs/p4env/share/psi4/basis/cc-pvtz.gbs
    Number of shells: 44
    Number of basis function: 116
    Number of Cartesian functions: 130
    Spherical Harmonics?: true
    Max angular momentum: 3

  ==> CGRSolver (by Rob Parrish) <==

   Number of roots    =         1
   Preconditioning    =    JACOBI
   Convergence cutoff =     1E-06
   Maximum iterations =       100

  ==> CPHFRHamiltonian (by Rob Parrish) <== 

  ==> DFJK: Density-Fitted J/K Matrices <==

    J tasked:                  Yes
    K tasked:                  Yes
    wK tasked:                  No
    OpenMP threads:             16
    Integrals threads:          16
    Memory (MB):             39339
    Algorithm:                Core
    Integral Cache:           NONE
    Schwarz Cutoff:          1E-12
    Fitting Condition:       1E-12

   => Auxiliary Basis Set <=

  Basis Set: file /usr/local/hpc5/psi4conda/envs/p4env/share/psi4/basis/cc-pvtz-jkfit.gbs
    Number of shells: 90
    Number of basis function: 278
    Number of Cartesian functions: 332
    Spherical Harmonics?: true
    Max angular momentum: 4

  ==> CPHF Iterations <==

  => Iterations <=

             Iter  Converged  Remaining    Residual
  CGR           1          0          1   5.666E-02
  CGR           2          0          1   1.166E-02
  CGR           3          0          1   3.860E-03
  CGR           4          0          1   1.175E-03
  CGR           5          0          1   2.516E-04
  CGR           6          0          1   5.263E-05
  CGR           7          0          1   9.071E-06
  CGR           8          0          1   2.271E-06
  CGR           9          1          0   4.969E-07

    CGRSolver converged.

  ==> DFCorrGrad: Density-Fitted Correlated Gradients <==

    OpenMP threads:             16
    Integrals threads:          16
    Memory (MB):             39339
    Schwarz Cutoff:          0E+00
    Fitting Condition:       1E-12

   => Auxiliary Basis Set <=

  Basis Set: file /usr/local/hpc5/psi4conda/envs/p4env/share/psi4/basis/cc-pvtz-jkfit.gbs
    Number of shells: 90
    Number of basis function: 278
    Number of Cartesian functions: 332
    Spherical Harmonics?: true
    Max angular momentum: 4

	-----------------------------------------------------------
	 ==================> DF-MP2 Energies <==================== 
	-----------------------------------------------------------
	 Reference Energy          =    -115.0892396359531347 [Eh]
	 Singles Energy            =      -0.0000000000000000 [Eh]
	 Same-Spin Energy          =      -0.0982332438104764 [Eh]
	 Opposite-Spin Energy      =      -0.3298866950242476 [Eh]
	 Correlation Energy        =      -0.4281199388347240 [Eh]
	 Total Energy              =    -115.5173595747878608 [Eh]
	-----------------------------------------------------------
	 ================> DF-SCS-MP2 Energies <================== 
	-----------------------------------------------------------
	 SCS Same-Spin Scale       =       0.3333333333333333 [-]
	 SCS Opposite-Spin Scale   =       1.2000000000000000 [-]
	 SCS Same-Spin Energy      =      -0.0327444146034921 [Eh]
	 SCS Opposite-Spin Energy  =      -0.3958640340290971 [Eh]
	 SCS Correlation Energy    =      -0.4286084486325893 [Eh]
	 SCS Total Energy          =    -115.5178480845857223 [Eh]
	-----------------------------------------------------------


  -Total Gradient:
     Atom            X                  Y                   Z
    ------   -----------------  -----------------  -----------------
       1       -0.000895714375     0.000029715431    -0.000001936177
       2        0.000132055813     0.000072577967     0.000115502592
       3        0.000137940428    -0.000165159851     0.000005854242
       4        0.000129908349     0.000062306450    -0.000117616730
       5        0.000454525827    -0.000021372260    -0.000000781845
       6        0.000041283960     0.000021932262    -0.000001022083


*** tstop() called on wr27 at Fri Mar 31 14:44:05 2017
Module time:
	user time   =      93.24 seconds =       1.55 minutes
	system time =       3.84 seconds =       0.06 minutes
	total time  =         24 seconds =       0.40 minutes
Total time:
	user time   =      93.24 seconds =       1.55 minutes
	system time =       3.84 seconds =       0.06 minutes
	total time  =         24 seconds =       0.40 minutes

  //>>>>>>>>>>>>>>>>>>>>>>>>>>>>>>>>>>>//
  //    Loading displacement 2 of 25   //
  //<<<<<<<<<<<<<<<<<<<<<<<<<<<<<<<<<<<//
gradient() will perform analytic gradient computation.

*** tstart() called on wr27
*** at Fri Mar 31 14:44:05 2017

    SCF Algorithm Type (re)set to DF.

         ---------------------------------------------------------
                                   SCF
            by Justin Turney, Rob Parrish, and Andy Simmonett
                              RHF Reference
                       16 Threads,  55000 MiB Core
         ---------------------------------------------------------

  ==> Geometry <==

    Molecular point group: c1
    Full point group: C1

    Geometry (in Angstrom), charge = 0, multiplicity = 1:

       Center              X                  Y                   Z               Mass       
    ------------   -----------------  -----------------  -----------------  -----------------
           C         -0.725430836082    -0.029101041672     0.004491442819    12.000000000000
           H         -1.107463474660    -0.572864321549    -0.861594671384     1.007825032070
           H         -1.118416079211     0.982542827630    -0.030717609809     1.007825032070
           H         -1.099097777330    -0.507908740998     0.911592719292     1.007825032070
           O          0.687937282028     0.079128718957    -0.006145718893    15.994914619560
           H          1.044494128734    -0.811098839525     0.024777740381     1.007825032070

  Running in c1 symmetry.

  Rotational constants: A =      4.30432  B =      0.83069  C =      0.80133 [cm^-1]
  Rotational constants: A = 129040.36630  B =  24903.35132  C =  24023.41348 [MHz]
  Nuclear repulsion =   40.393036024084651

  Charge       = 0
  Multiplicity = 1
  Electrons    = 18
  Nalpha       = 9
  Nbeta        = 9

  ==> Algorithm <==

  SCF Algorithm Type is DF.
  DIIS enabled.
  MOM disabled.
  Fractional occupation disabled.
  Guess Type is SAD.
  Energy threshold   = 1.00e-10
  Density threshold  = 1.00e-10
  Integral threshold = 0.00e+00

  ==> Primary Basis <==

  Basis Set: file /usr/local/hpc5/psi4conda/envs/p4env/share/psi4/basis/cc-pvtz.gbs
    Number of shells: 44
    Number of basis function: 116
    Number of Cartesian functions: 130
    Spherical Harmonics?: true
    Max angular momentum: 3

  ==> Pre-Iterations <==

   -------------------------------------------------------
    Irrep   Nso     Nmo     Nalpha   Nbeta   Ndocc  Nsocc
   -------------------------------------------------------
     A        116     116       0       0       0       0
   -------------------------------------------------------
    Total     116     116       9       9       9       0
   -------------------------------------------------------

  ==> Integral Setup <==

  ==> DFJK: Density-Fitted J/K Matrices <==

    J tasked:                  Yes
    K tasked:                  Yes
    wK tasked:                  No
    OpenMP threads:             16
    Integrals threads:          16
    Memory (MB):             39339
    Algorithm:                Core
    Integral Cache:           NONE
    Schwarz Cutoff:          1E-12
    Fitting Condition:       1E-12

   => Auxiliary Basis Set <=

  Basis Set: file /usr/local/hpc5/psi4conda/envs/p4env/share/psi4/basis/cc-pvtz-jkfit.gbs
    Number of shells: 90
    Number of basis function: 278
    Number of Cartesian functions: 332
    Spherical Harmonics?: true
    Max angular momentum: 4

  Minimum eigenvalue in the overlap matrix is 1.8329437157E-03.
  Using Symmetric Orthogonalization.

  SCF Guess: Superposition of Atomic Densities via on-the-fly atomic UHF.

  ==> Iterations <==

                           Total Energy        Delta E     RMS |[F,P]|

   @DF-RHF iter   0:  -115.36099920815130   -1.15361e+02   2.09971e-02 
   @DF-RHF iter   1:  -115.00537957915206    3.55620e-01   3.56278e-03 
   @DF-RHF iter   2:  -115.06532768429990   -5.99481e-02   2.23149e-03 DIIS
   @DF-RHF iter   3:  -115.08763806621882   -2.23104e-02   3.55142e-04 DIIS
   @DF-RHF iter   4:  -115.08914928564668   -1.51122e-03   8.14883e-05 DIIS
   @DF-RHF iter   5:  -115.08925234504805   -1.03059e-04   2.39155e-05 DIIS
   @DF-RHF iter   6:  -115.08926163384854   -9.28880e-06   7.04545e-06 DIIS
   @DF-RHF iter   7:  -115.08926224199551   -6.08147e-07   1.72822e-06 DIIS
   @DF-RHF iter   8:  -115.08926228837757   -4.63821e-08   3.68464e-07 DIIS
   @DF-RHF iter   9:  -115.08926229071774   -2.34017e-09   8.08924e-08 DIIS
   @DF-RHF iter  10:  -115.08926229083524   -1.17495e-10   1.68597e-08 DIIS
   @DF-RHF iter  11:  -115.08926229084064   -5.40012e-12   3.51589e-09 DIIS
   @DF-RHF iter  12:  -115.08926229084081   -1.70530e-13   1.00893e-09 DIIS
   @DF-RHF iter  13:  -115.08926229084088   -7.10543e-14   2.55316e-10 DIIS
   @DF-RHF iter  14:  -115.08926229084132   -4.40536e-13   5.01588e-11 DIIS

  ==> Post-Iterations <==

    Orbital Energies (a.u.)
    -----------------------

    Doubly Occupied:                                                      

       1A    -20.552546     2A    -11.268239     3A     -1.355206  
       4A     -0.923967     5A     -0.688884     6A     -0.618631  
       7A     -0.590981     8A     -0.502150     9A     -0.449110  

    Virtual:                                                              

      10A      0.138554    11A      0.178803    12A      0.220531  
      13A      0.224072    14A      0.290998    15A      0.386564  
      16A      0.404596    17A      0.545446    18A      0.584667  
      19A      0.624164    20A      0.625705    21A      0.639546  
      22A      0.690636    23A      0.704491    24A      0.721658  
      25A      0.833336    26A      0.865193    27A      0.872362  
      28A      0.927818    29A      1.069827    30A      1.101650  
      31A      1.178377    32A      1.190570    33A      1.262996  
      34A      1.272545    35A      1.283499    36A      1.366310  
      37A      1.447464    38A      1.492220    39A      1.523871  
      40A      1.546288    41A      1.584617    42A      1.619592  
      43A      1.777694    44A      2.093380    45A      2.181178  
      46A      2.200525    47A      2.301225    48A      2.324685  
      49A      2.488801    50A      2.511166    51A      2.576970  
      52A      2.805640    53A      2.951873    54A      3.057459  
      55A      3.111896    56A      3.118392    57A      3.145308  
      58A      3.225065    59A      3.245667    60A      3.316177  
      61A      3.316799    62A      3.344549    63A      3.387003  
      64A      3.502775    65A      3.616148    66A      3.635219  
      67A      3.702711    68A      3.710449    69A      3.747616  
      70A      3.763463    71A      3.817647    72A      3.843097  
      73A      3.906552    74A      4.010933    75A      4.028970  
      76A      4.119068    77A      4.161934    78A      4.173524  
      79A      4.249567    80A      4.257981    81A      4.289780  
      82A      4.404104    83A      4.439877    84A      4.468457  
      85A      4.562820    86A      4.584507    87A      4.715020  
      88A      4.787433    89A      4.999963    90A      5.034859  
      91A      5.059272    92A      5.205192    93A      5.275415  
      94A      5.318557    95A      5.377080    96A      5.441434  
      97A      5.551121    98A      5.553117    99A      5.569424  
     100A      5.792864   101A      5.949794   102A      6.195815  
     103A      6.216332   104A      6.253568   105A      6.439657  
     106A      6.645869   107A      7.001805   108A      7.131709  
     109A      7.183740   110A      7.244676   111A      7.363019  
     112A      7.437421   113A      7.601732   114A      7.917949  
     115A     12.141702   116A     13.750591  

    Final Occupation by Irrep:
              A 
    DOCC [     9 ]

  Energy converged.

  @DF-RHF Final Energy:  -115.08926229084132

   => Energetics <=

    Nuclear Repulsion Energy =             40.3930360240846511
    One-Electron Energy =                -237.0651681068085850
    Two-Electron Energy =                  81.5828697918826009
    DFT Exchange-Correlation Energy =       0.0000000000000000
    Empirical Dispersion Energy =           0.0000000000000000
    PCM Polarization Energy =               0.0000000000000000
    EFP Energy =                            0.0000000000000000
    Total Energy =                       -115.0892622908413188

    Alert: EFP and PCM quantities not currently incorporated into SCF psivars.

Properties will be evaluated at   0.000000,   0.000000,   0.000000 Bohr

Properties computed using the SCF density matrix

  Nuclear Dipole Moment: (a.u.)
     X:    -2.1346      Y:    -0.8521      Z:     0.0413

  Electronic Dipole Moment: (a.u.)
     X:     1.7638      Y:     0.2556      Z:    -0.0177

  Dipole Moment: (a.u.)
     X:    -0.3707      Y:    -0.5965      Z:     0.0236     Total:     0.7027

  Dipole Moment: (Debye)
     X:    -0.9423      Y:    -1.5161      Z:     0.0600     Total:     1.7861


  //>>>>>>>>>>>>>>>>>>>>>>>>>>>>>>>>>>>//
  //               DFMP2               //
  //<<<<<<<<<<<<<<<<<<<<<<<<<<<<<<<<<<<//

	 --------------------------------------------------------
	                          DF-MP2                         
	      2nd-Order Density-Fitted Moller-Plesset Theory     
	              RMP2 Wavefunction,  16 Threads             
	                                                         
	        Rob Parrish, Justin Turney, Andy Simmonett,      
	           Ed Hohenstein, and C. David Sherrill          
	 --------------------------------------------------------

   => Auxiliary Basis Set <=

  Basis Set: file /usr/local/hpc5/psi4conda/envs/p4env/share/psi4/basis/cc-pvtz-ri.gbs
    Number of shells: 86
    Number of basis function: 282
    Number of Cartesian functions: 342
    Spherical Harmonics?: true
    Max angular momentum: 4

	 --------------------------------------------------------
	                 NBF =   116, NAUX =   282
	 --------------------------------------------------------
	   CLASS    FOCC     OCC    AOCC    AVIR     VIR    FVIR
	   PAIRS       2       9       7     107     107       0
	 --------------------------------------------------------


         ------------------------------------------------------------
                                     CPHF                           
                                  Rob Parrish                       
         ------------------------------------------------------------

  ==> Geometry <==

    Molecular point group: c1
    Full point group: C1

    Geometry (in Angstrom), charge = 0, multiplicity = 1:

       Center              X                  Y                   Z               Mass       
    ------------   -----------------  -----------------  -----------------  -----------------
           C         -0.725430836082    -0.029101041672     0.004491442819    12.000000000000
           H         -1.107463474660    -0.572864321549    -0.861594671384     1.007825032070
           H         -1.118416079211     0.982542827630    -0.030717609809     1.007825032070
           H         -1.099097777330    -0.507908740998     0.911592719292     1.007825032070
           O          0.687937282028     0.079128718957    -0.006145718893    15.994914619560
           H          1.044494128734    -0.811098839525     0.024777740381     1.007825032070

  Nuclear repulsion =   40.393036024084651
  Reference energy  = -115.089262290841319

  ==> Basis Set <==

  Basis Set: file /usr/local/hpc5/psi4conda/envs/p4env/share/psi4/basis/cc-pvtz.gbs
    Number of shells: 44
    Number of basis function: 116
    Number of Cartesian functions: 130
    Spherical Harmonics?: true
    Max angular momentum: 3

  ==> CGRSolver (by Rob Parrish) <==

   Number of roots    =         1
   Preconditioning    =    JACOBI
   Convergence cutoff =     1E-06
   Maximum iterations =       100

  ==> CPHFRHamiltonian (by Rob Parrish) <== 

  ==> DFJK: Density-Fitted J/K Matrices <==

    J tasked:                  Yes
    K tasked:                  Yes
    wK tasked:                  No
    OpenMP threads:             16
    Integrals threads:          16
    Memory (MB):             39339
    Algorithm:                Core
    Integral Cache:           NONE
    Schwarz Cutoff:          1E-12
    Fitting Condition:       1E-12

   => Auxiliary Basis Set <=

  Basis Set: file /usr/local/hpc5/psi4conda/envs/p4env/share/psi4/basis/cc-pvtz-jkfit.gbs
    Number of shells: 90
    Number of basis function: 278
    Number of Cartesian functions: 332
    Spherical Harmonics?: true
    Max angular momentum: 4

  ==> CPHF Iterations <==

  => Iterations <=

             Iter  Converged  Remaining    Residual
  CGR           1          0          1   5.672E-02
  CGR           2          0          1   1.166E-02
  CGR           3          0          1   3.810E-03
  CGR           4          0          1   1.169E-03
  CGR           5          0          1   2.504E-04
  CGR           6          0          1   5.217E-05
  CGR           7          0          1   8.945E-06
  CGR           8          0          1   2.239E-06
  CGR           9          1          0   4.902E-07

    CGRSolver converged.

  ==> DFCorrGrad: Density-Fitted Correlated Gradients <==

    OpenMP threads:             16
    Integrals threads:          16
    Memory (MB):             39339
    Schwarz Cutoff:          0E+00
    Fitting Condition:       1E-12

   => Auxiliary Basis Set <=

  Basis Set: file /usr/local/hpc5/psi4conda/envs/p4env/share/psi4/basis/cc-pvtz-jkfit.gbs
    Number of shells: 90
    Number of basis function: 278
    Number of Cartesian functions: 332
    Spherical Harmonics?: true
    Max angular momentum: 4

	-----------------------------------------------------------
	 ==================> DF-MP2 Energies <==================== 
	-----------------------------------------------------------
	 Reference Energy          =    -115.0892622908413188 [Eh]
	 Singles Energy            =      -0.0000000000000000 [Eh]
	 Same-Spin Energy          =      -0.0982347711636965 [Eh]
	 Opposite-Spin Energy      =      -0.3298625002891119 [Eh]
	 Correlation Energy        =      -0.4280972714528083 [Eh]
	 Total Energy              =    -115.5173595622941320 [Eh]
	-----------------------------------------------------------
	 ================> DF-SCS-MP2 Energies <================== 
	-----------------------------------------------------------
	 SCS Same-Spin Scale       =       0.3333333333333333 [-]
	 SCS Opposite-Spin Scale   =       1.2000000000000000 [-]
	 SCS Same-Spin Energy      =      -0.0327449237212322 [Eh]
	 SCS Opposite-Spin Energy  =      -0.3958350003469343 [Eh]
	 SCS Correlation Energy    =      -0.4285799240681664 [Eh]
	 SCS Total Energy          =    -115.5178422149094786 [Eh]
	-----------------------------------------------------------


  -Total Gradient:
     Atom            X                  Y                   Z
    ------   -----------------  -----------------  -----------------
       1        0.000905151802    -0.000041082930     0.000002186114
       2       -0.000132689985    -0.000071788587    -0.000115864891
       3       -0.000133248215     0.000167038986    -0.000005932732
       4       -0.000130538026    -0.000061460206     0.000117999219
       5       -0.000460552645     0.000028104677     0.000000652160
       6       -0.000048122932    -0.000020811941     0.000000960130


*** tstop() called on wr27 at Fri Mar 31 14:44:47 2017
Module time:
	user time   =      91.62 seconds =       1.53 minutes
	system time =       3.57 seconds =       0.06 minutes
	total time  =         42 seconds =       0.70 minutes
Total time:
	user time   =     184.87 seconds =       3.08 minutes
	system time =       7.41 seconds =       0.12 minutes
	total time  =         66 seconds =       1.10 minutes

  //>>>>>>>>>>>>>>>>>>>>>>>>>>>>>>>>>>>//
  //    Loading displacement 3 of 25   //
  //<<<<<<<<<<<<<<<<<<<<<<<<<<<<<<<<<<<//
gradient() will perform analytic gradient computation.

*** tstart() called on wr27
*** at Fri Mar 31 14:44:48 2017

    SCF Algorithm Type (re)set to DF.

         ---------------------------------------------------------
                                   SCF
            by Justin Turney, Rob Parrish, and Andy Simmonett
                              RHF Reference
                       16 Threads,  55000 MiB Core
         ---------------------------------------------------------

  ==> Geometry <==

    Molecular point group: c1
    Full point group: C1

    Geometry (in Angstrom), charge = 0, multiplicity = 1:

       Center              X                  Y                   Z               Mass       
    ------------   -----------------  -----------------  -----------------  -----------------
           C         -0.726034583426    -0.029547848207     0.004493902404    12.000000000000
           H         -1.107422727744    -0.571769531597    -0.861588185460     1.007825032070
           H         -1.117534036652     0.983647835935    -0.030719139654     1.007825032070
           H         -1.099016368073    -0.506809285690     0.911598842394     1.007825032070
           O          0.688332310325     0.079259886602    -0.006148317406    15.994914619560
           H          1.044409260448    -0.811159769932     0.024778615639     1.007825032070

  Running in c1 symmetry.

  Rotational constants: A =      4.30387  B =      0.82999  C =      0.80068 [cm^-1]
  Rotational constants: A = 129026.70069  B =  24882.61876  C =  24003.64671 [MHz]
  Nuclear repulsion =   40.382256974116146

  Charge       = 0
  Multiplicity = 1
  Electrons    = 18
  Nalpha       = 9
  Nbeta        = 9

  ==> Algorithm <==

  SCF Algorithm Type is DF.
  DIIS enabled.
  MOM disabled.
  Fractional occupation disabled.
  Guess Type is SAD.
  Energy threshold   = 1.00e-10
  Density threshold  = 1.00e-10
  Integral threshold = 0.00e+00

  ==> Primary Basis <==

  Basis Set: file /usr/local/hpc5/psi4conda/envs/p4env/share/psi4/basis/cc-pvtz.gbs
    Number of shells: 44
    Number of basis function: 116
    Number of Cartesian functions: 130
    Spherical Harmonics?: true
    Max angular momentum: 3

  ==> Pre-Iterations <==

   -------------------------------------------------------
    Irrep   Nso     Nmo     Nalpha   Nbeta   Ndocc  Nsocc
   -------------------------------------------------------
     A        116     116       0       0       0       0
   -------------------------------------------------------
    Total     116     116       9       9       9       0
   -------------------------------------------------------

  ==> Integral Setup <==

  ==> DFJK: Density-Fitted J/K Matrices <==

    J tasked:                  Yes
    K tasked:                  Yes
    wK tasked:                  No
    OpenMP threads:             16
    Integrals threads:          16
    Memory (MB):             39339
    Algorithm:                Core
    Integral Cache:           NONE
    Schwarz Cutoff:          1E-12
    Fitting Condition:       1E-12

   => Auxiliary Basis Set <=

  Basis Set: file /usr/local/hpc5/psi4conda/envs/p4env/share/psi4/basis/cc-pvtz-jkfit.gbs
    Number of shells: 90
    Number of basis function: 278
    Number of Cartesian functions: 332
    Spherical Harmonics?: true
    Max angular momentum: 4

  Minimum eigenvalue in the overlap matrix is 1.8306980032E-03.
  Using Symmetric Orthogonalization.

  SCF Guess: Superposition of Atomic Densities via on-the-fly atomic UHF.

  ==> Iterations <==

                           Total Energy        Delta E     RMS |[F,P]|

   @DF-RHF iter   0:  -115.37321694907301   -1.15373e+02   2.09687e-02 
   @DF-RHF iter   1:  -115.00628953566010    3.66927e-01   3.55717e-03 
   @DF-RHF iter   2:  -115.06643822567445   -6.01487e-02   2.17501e-03 DIIS
   @DF-RHF iter   3:  -115.08763321301184   -2.11950e-02   3.60425e-04 DIIS
   @DF-RHF iter   4:  -115.08911565834944   -1.48245e-03   8.36160e-05 DIIS
   @DF-RHF iter   5:  -115.08922408189314   -1.08424e-04   2.54458e-05 DIIS
   @DF-RHF iter   6:  -115.08923430056387   -1.02187e-05   7.65249e-06 DIIS
   @DF-RHF iter   7:  -115.08923510019051   -7.99627e-07   1.86119e-06 DIIS
   @DF-RHF iter   8:  -115.08923516056070   -6.03702e-08   4.00875e-07 DIIS
   @DF-RHF iter   9:  -115.08923516350644   -2.94574e-09   9.54586e-08 DIIS
   @DF-RHF iter  10:  -115.08923516368239   -1.75945e-10   2.29056e-08 DIIS
   @DF-RHF iter  11:  -115.08923516369389   -1.14966e-11   4.69813e-09 DIIS
   @DF-RHF iter  12:  -115.08923516369462   -7.38964e-13   1.15018e-09 DIIS
   @DF-RHF iter  13:  -115.08923516369489   -2.70006e-13   2.60316e-10 DIIS
   @DF-RHF iter  14:  -115.08923516369484    5.68434e-14   4.93652e-11 DIIS

  ==> Post-Iterations <==

    Orbital Energies (a.u.)
    -----------------------

    Doubly Occupied:                                                      

       1A    -20.552484     2A    -11.268197     3A     -1.354827  
       4A     -0.924047     5A     -0.688661     6A     -0.618861  
       7A     -0.590418     8A     -0.502167     9A     -0.449372  

    Virtual:                                                              

      10A      0.138579    11A      0.178854    12A      0.220475  
      13A      0.223993    14A      0.290860    15A      0.386300  
      16A      0.404717    17A      0.545148    18A      0.584685  
      19A      0.624680    20A      0.625472    21A      0.639708  
      22A      0.690555    23A      0.704431    24A      0.721587  
      25A      0.833579    26A      0.865071    27A      0.872488  
      28A      0.927861    29A      1.069743    30A      1.101708  
      31A      1.178245    32A      1.190378    33A      1.263101  
      34A      1.272670    35A      1.283553    36A      1.365072  
      37A      1.447558    38A      1.492542    39A      1.524112  
      40A      1.546350    41A      1.585528    42A      1.619125  
      43A      1.778357    44A      2.093215    45A      2.180701  
      46A      2.200366    47A      2.300314    48A      2.324380  
      49A      2.487727    50A      2.512446    51A      2.576360  
      52A      2.805834    53A      2.952408    54A      3.056664  
      55A      3.112131    56A      3.117694    57A      3.145304  
      58A      3.224951    59A      3.245780    60A      3.316127  
      61A      3.316692    62A      3.344517    63A      3.386514  
      64A      3.502515    65A      3.615951    66A      3.635353  
      67A      3.703149    68A      3.709912    69A      3.748201  
      70A      3.763382    71A      3.817058    72A      3.843295  
      73A      3.906900    74A      4.012541    75A      4.029534  
      76A      4.118924    77A      4.162021    78A      4.173590  
      79A      4.249823    80A      4.258221    81A      4.289797  
      82A      4.403662    83A      4.440138    84A      4.467808  
      85A      4.562756    86A      4.584795    87A      4.714598  
      88A      4.787530    89A      5.000445    90A      5.034757  
      91A      5.061651    92A      5.203347    93A      5.276214  
      94A      5.320197    95A      5.376496    96A      5.444735  
      97A      5.551398    98A      5.552687    99A      5.571546  
     100A      5.792232   101A      5.949166   102A      6.195055  
     103A      6.215355   104A      6.252776   105A      6.438626  
     106A      6.644565   107A      7.001667   108A      7.131784  
     109A      7.183158   110A      7.244730   111A      7.362702  
     112A      7.436587   113A      7.601438   114A      7.917249  
     115A     12.139838   116A     13.752369  

    Final Occupation by Irrep:
              A 
    DOCC [     9 ]

  Energy converged.

  @DF-RHF Final Energy:  -115.08923516369484

   => Energetics <=

    Nuclear Repulsion Energy =             40.3822569741161459
    One-Electron Energy =                -237.0449126754334657
    Two-Electron Energy =                  81.5734205376224679
    DFT Exchange-Correlation Energy =       0.0000000000000000
    Empirical Dispersion Energy =           0.0000000000000000
    PCM Polarization Energy =               0.0000000000000000
    EFP Energy =                            0.0000000000000000
    Total Energy =                       -115.0892351636948376

    Alert: EFP and PCM quantities not currently incorporated into SCF psivars.

Properties will be evaluated at   0.000000,   0.000000,   0.000000 Bohr

Properties computed using the SCF density matrix

  Nuclear Dipole Moment: (a.u.)
     X:    -2.1337      Y:    -0.8491      Z:     0.0413

  Electronic Dipole Moment: (a.u.)
     X:     1.7610      Y:     0.2518      Z:    -0.0177

  Dipole Moment: (a.u.)
     X:    -0.3727      Y:    -0.5972      Z:     0.0236     Total:     0.7044

  Dipole Moment: (Debye)
     X:    -0.9473      Y:    -1.5180      Z:     0.0600     Total:     1.7904


  //>>>>>>>>>>>>>>>>>>>>>>>>>>>>>>>>>>>//
  //               DFMP2               //
  //<<<<<<<<<<<<<<<<<<<<<<<<<<<<<<<<<<<//

	 --------------------------------------------------------
	                          DF-MP2                         
	      2nd-Order Density-Fitted Moller-Plesset Theory     
	              RMP2 Wavefunction,  16 Threads             
	                                                         
	        Rob Parrish, Justin Turney, Andy Simmonett,      
	           Ed Hohenstein, and C. David Sherrill          
	 --------------------------------------------------------

   => Auxiliary Basis Set <=

  Basis Set: file /usr/local/hpc5/psi4conda/envs/p4env/share/psi4/basis/cc-pvtz-ri.gbs
    Number of shells: 86
    Number of basis function: 282
    Number of Cartesian functions: 342
    Spherical Harmonics?: true
    Max angular momentum: 4

	 --------------------------------------------------------
	                 NBF =   116, NAUX =   282
	 --------------------------------------------------------
	   CLASS    FOCC     OCC    AOCC    AVIR     VIR    FVIR
	   PAIRS       2       9       7     107     107       0
	 --------------------------------------------------------


         ------------------------------------------------------------
                                     CPHF                           
                                  Rob Parrish                       
         ------------------------------------------------------------

  ==> Geometry <==

    Molecular point group: c1
    Full point group: C1

    Geometry (in Angstrom), charge = 0, multiplicity = 1:

       Center              X                  Y                   Z               Mass       
    ------------   -----------------  -----------------  -----------------  -----------------
           C         -0.726034583426    -0.029547848207     0.004493902404    12.000000000000
           H         -1.107422727744    -0.571769531597    -0.861588185460     1.007825032070
           H         -1.117534036652     0.983647835935    -0.030719139654     1.007825032070
           H         -1.099016368073    -0.506809285690     0.911598842394     1.007825032070
           O          0.688332310325     0.079259886602    -0.006148317406    15.994914619560
           H          1.044409260448    -0.811159769932     0.024778615639     1.007825032070

  Nuclear repulsion =   40.382256974116146
  Reference energy  = -115.089235163694838

  ==> Basis Set <==

  Basis Set: file /usr/local/hpc5/psi4conda/envs/p4env/share/psi4/basis/cc-pvtz.gbs
    Number of shells: 44
    Number of basis function: 116
    Number of Cartesian functions: 130
    Spherical Harmonics?: true
    Max angular momentum: 3

  ==> CGRSolver (by Rob Parrish) <==

   Number of roots    =         1
   Preconditioning    =    JACOBI
   Convergence cutoff =     1E-06
   Maximum iterations =       100

  ==> CPHFRHamiltonian (by Rob Parrish) <== 

  ==> DFJK: Density-Fitted J/K Matrices <==

    J tasked:                  Yes
    K tasked:                  Yes
    wK tasked:                  No
    OpenMP threads:             16
    Integrals threads:          16
    Memory (MB):             39339
    Algorithm:                Core
    Integral Cache:           NONE
    Schwarz Cutoff:          1E-12
    Fitting Condition:       1E-12

   => Auxiliary Basis Set <=

  Basis Set: file /usr/local/hpc5/psi4conda/envs/p4env/share/psi4/basis/cc-pvtz-jkfit.gbs
    Number of shells: 90
    Number of basis function: 278
    Number of Cartesian functions: 332
    Spherical Harmonics?: true
    Max angular momentum: 4

  ==> CPHF Iterations <==

  => Iterations <=

             Iter  Converged  Remaining    Residual
  CGR           1          0          1   5.670E-02
  CGR           2          0          1   1.166E-02
  CGR           3          0          1   3.848E-03
  CGR           4          0          1   1.174E-03
  CGR           5          0          1   2.512E-04
  CGR           6          0          1   5.243E-05
  CGR           7          0          1   9.016E-06
  CGR           8          0          1   2.257E-06
  CGR           9          1          0   4.941E-07

    CGRSolver converged.

  ==> DFCorrGrad: Density-Fitted Correlated Gradients <==

    OpenMP threads:             16
    Integrals threads:          16
    Memory (MB):             39339
    Schwarz Cutoff:          0E+00
    Fitting Condition:       1E-12

   => Auxiliary Basis Set <=

  Basis Set: file /usr/local/hpc5/psi4conda/envs/p4env/share/psi4/basis/cc-pvtz-jkfit.gbs
    Number of shells: 90
    Number of basis function: 278
    Number of Cartesian functions: 332
    Spherical Harmonics?: true
    Max angular momentum: 4

	-----------------------------------------------------------
	 ==================> DF-MP2 Energies <==================== 
	-----------------------------------------------------------
	 Reference Energy          =    -115.0892351636948376 [Eh]
	 Singles Energy            =      -0.0000000000000000 [Eh]
	 Same-Spin Energy          =      -0.0982385102393520 [Eh]
	 Opposite-Spin Energy      =      -0.3298847025020319 [Eh]
	 Correlation Energy        =      -0.4281232127413839 [Eh]
	 Total Energy              =    -115.5173583764362206 [Eh]
	-----------------------------------------------------------
	 ================> DF-SCS-MP2 Energies <================== 
	-----------------------------------------------------------
	 SCS Same-Spin Scale       =       0.3333333333333333 [-]
	 SCS Opposite-Spin Scale   =       1.2000000000000000 [-]
	 SCS Same-Spin Energy      =      -0.0327461700797840 [Eh]
	 SCS Opposite-Spin Energy  =      -0.3958616430024383 [Eh]
	 SCS Correlation Energy    =      -0.4286078130822222 [Eh]
	 SCS Total Energy          =    -115.5178429767770609 [Eh]
	-----------------------------------------------------------


  -Total Gradient:
     Atom            X                  Y                   Z
    ------   -----------------  -----------------  -----------------
       1        0.000073731311    -0.001581722340     0.000003455752
       2        0.000087272997     0.000305522075     0.000267076812
       3       -0.000195585562     0.000769602346    -0.000022407141
       4        0.000073498504     0.000267942221    -0.000245383299
       5        0.000077564551     0.000241120212    -0.000003379445
       6       -0.000116481799    -0.000002464512     0.000000637322


*** tstop() called on wr27 at Fri Mar 31 14:45:22 2017
Module time:
	user time   =      90.62 seconds =       1.51 minutes
	system time =       3.57 seconds =       0.06 minutes
	total time  =         34 seconds =       0.57 minutes
Total time:
	user time   =     275.50 seconds =       4.59 minutes
	system time =      10.98 seconds =       0.18 minutes
	total time  =        101 seconds =       1.68 minutes

  //>>>>>>>>>>>>>>>>>>>>>>>>>>>>>>>>>>>//
  //    Loading displacement 4 of 25   //
  //<<<<<<<<<<<<<<<<<<<<<<<<<<<<<<<<<<<//
gradient() will perform analytic gradient computation.

*** tstart() called on wr27
*** at Fri Mar 31 14:45:22 2017

    SCF Algorithm Type (re)set to DF.

         ---------------------------------------------------------
                                   SCF
            by Justin Turney, Rob Parrish, and Andy Simmonett
                              RHF Reference
                       16 Threads,  55000 MiB Core
         ---------------------------------------------------------

  ==> Geometry <==

    Molecular point group: c1
    Full point group: C1

    Geometry (in Angstrom), charge = 0, multiplicity = 1:

       Center              X                  Y                   Z               Mass       
    ------------   -----------------  -----------------  -----------------  -----------------
           C         -0.726034583426    -0.028677513671     0.004492680758    12.000000000000
           H         -1.106766108610    -0.573994865625    -0.861595362232     1.007825032070
           H         -1.118605660440     0.981401959959    -0.030710690908     1.007825032070
           H         -1.098434147077    -0.509043155635     0.911592329460     1.007825032070
           O          0.688263806393     0.079019619356    -0.006146641022    15.994914619560
           H          1.045329251230    -0.811004398649     0.024771797088     1.007825032070

  Running in c1 symmetry.

  Rotational constants: A =      4.30478  B =      0.83000  C =      0.80071 [cm^-1]
  Rotational constants: A = 129054.09185  B =  24882.79196  C =  24004.75572 [MHz]
  Nuclear repulsion =   40.383412668701133

  Charge       = 0
  Multiplicity = 1
  Electrons    = 18
  Nalpha       = 9
  Nbeta        = 9

  ==> Algorithm <==

  SCF Algorithm Type is DF.
  DIIS enabled.
  MOM disabled.
  Fractional occupation disabled.
  Guess Type is SAD.
  Energy threshold   = 1.00e-10
  Density threshold  = 1.00e-10
  Integral threshold = 0.00e+00

  ==> Primary Basis <==

  Basis Set: file /usr/local/hpc5/psi4conda/envs/p4env/share/psi4/basis/cc-pvtz.gbs
    Number of shells: 44
    Number of basis function: 116
    Number of Cartesian functions: 130
    Spherical Harmonics?: true
    Max angular momentum: 3

  ==> Pre-Iterations <==

   -------------------------------------------------------
    Irrep   Nso     Nmo     Nalpha   Nbeta   Ndocc  Nsocc
   -------------------------------------------------------
     A        116     116       0       0       0       0
   -------------------------------------------------------
    Total     116     116       9       9       9       0
   -------------------------------------------------------

  ==> Integral Setup <==

  ==> DFJK: Density-Fitted J/K Matrices <==

    J tasked:                  Yes
    K tasked:                  Yes
    wK tasked:                  No
    OpenMP threads:             16
    Integrals threads:          16
    Memory (MB):             39339
    Algorithm:                Core
    Integral Cache:           NONE
    Schwarz Cutoff:          1E-12
    Fitting Condition:       1E-12

   => Auxiliary Basis Set <=

  Basis Set: file /usr/local/hpc5/psi4conda/envs/p4env/share/psi4/basis/cc-pvtz-jkfit.gbs
    Number of shells: 90
    Number of basis function: 278
    Number of Cartesian functions: 332
    Spherical Harmonics?: true
    Max angular momentum: 4

  Minimum eigenvalue in the overlap matrix is 1.8333037305E-03.
  Using Symmetric Orthogonalization.

  SCF Guess: Superposition of Atomic Densities via on-the-fly atomic UHF.

  ==> Iterations <==

                           Total Energy        Delta E     RMS |[F,P]|

   @DF-RHF iter   0:  -115.43069803757280   -1.15431e+02   2.21211e-02 
   @DF-RHF iter   1:  -115.05221555209553    3.78482e-01   2.02480e-03 
   @DF-RHF iter   2:  -115.08508989392911   -3.28743e-02   5.85093e-04 DIIS
   @DF-RHF iter   3:  -115.08847767074987   -3.38778e-03   2.69213e-04 DIIS
   @DF-RHF iter   4:  -115.08915308491126   -6.75414e-04   9.20720e-05 DIIS
   @DF-RHF iter   5:  -115.08925343924830   -1.00354e-04   2.54144e-05 DIIS
   @DF-RHF iter   6:  -115.08926356350609   -1.01243e-05   6.95164e-06 DIIS
   @DF-RHF iter   7:  -115.08926419402394   -6.30518e-07   1.86391e-06 DIIS
   @DF-RHF iter   8:  -115.08926425391581   -5.98919e-08   4.63161e-07 DIIS
   @DF-RHF iter   9:  -115.08926425811481   -4.19899e-09   1.01275e-07 DIIS
   @DF-RHF iter  10:  -115.08926425829890   -1.84087e-10   2.31858e-08 DIIS
   @DF-RHF iter  11:  -115.08926425830873   -9.83391e-12   5.30417e-09 DIIS
   @DF-RHF iter  12:  -115.08926425830927   -5.40012e-13   1.15320e-09 DIIS
   @DF-RHF iter  13:  -115.08926425830948   -2.13163e-13   2.01601e-10 DIIS
   @DF-RHF iter  14:  -115.08926425830927    2.13163e-13   4.95087e-11 DIIS

  ==> Post-Iterations <==

    Orbital Energies (a.u.)
    -----------------------

    Doubly Occupied:                                                      

       1A    -20.552404     2A    -11.268219     3A     -1.354790  
       4A     -0.924109     5A     -0.688647     6A     -0.618362  
       7A     -0.591046     8A     -0.502407     9A     -0.449013  

    Virtual:                                                              

      10A      0.138554    11A      0.178831    12A      0.220485  
      13A      0.224098    14A      0.290849    15A      0.386651  
      16A      0.404339    17A      0.545522    18A      0.584179  
      19A      0.624079    20A      0.626104    21A      0.639454  
      22A      0.690833    23A      0.704533    24A      0.721912  
      25A      0.833427    26A      0.865371    27A      0.872329  
      28A      0.928122    29A      1.069729    30A      1.101666  
      31A      1.178120    32A      1.190325    33A      1.262903  
      34A      1.272577    35A      1.283513    36A      1.366377  
      37A      1.447669    38A      1.492768    39A      1.523820  
      40A      1.546180    41A      1.583900    42A      1.620107  
      43A      1.778145    44A      2.093173    45A      2.181067  
      46A      2.199254    47A      2.300912    48A      2.324620  
      49A      2.489701    50A      2.509841    51A      2.577217  
      52A      2.806658    53A      2.951022    54A      3.057211  
      55A      3.112319    56A      3.118045    57A      3.145769  
      58A      3.224903    59A      3.245398    60A      3.315648  
      61A      3.317697    62A      3.344829    63A      3.386836  
      64A      3.502598    65A      3.615596    66A      3.635603  
      67A      3.702750    68A      3.710529    69A      3.746665  
      70A      3.762966    71A      3.817892    72A      3.843336  
      73A      3.907117    74A      4.011856    75A      4.030065  
      76A      4.119087    77A      4.161857    78A      4.173420  
      79A      4.249555    80A      4.257693    81A      4.289966  
      82A      4.403691    83A      4.439865    84A      4.469469  
      85A      4.562840    86A      4.584273    87A      4.714868  
      88A      4.788638    89A      5.001021    90A      5.035061  
      91A      5.058477    92A      5.206185    93A      5.275196  
      94A      5.317799    95A      5.378446    96A      5.444966  
      97A      5.551756    98A      5.555566    99A      5.568876  
     100A      5.792218   101A      5.949742   102A      6.195507  
     103A      6.215099   104A      6.253234   105A      6.436156  
     106A      6.645800   107A      7.001934   108A      7.131758  
     109A      7.183879   110A      7.244335   111A      7.362232  
     112A      7.435944   113A      7.602266   114A      7.917495  
     115A     12.138074   116A     13.753994  

    Final Occupation by Irrep:
              A 
    DOCC [     9 ]

  Energy converged.

  @DF-RHF Final Energy:  -115.08926425830927

   => Energetics <=

    Nuclear Repulsion Energy =             40.3834126687011334
    One-Electron Energy =                -237.0473614123670529
    Two-Electron Energy =                  81.5746844853566415
    DFT Exchange-Correlation Energy =       0.0000000000000000
    Empirical Dispersion Energy =           0.0000000000000000
    PCM Polarization Energy =               0.0000000000000000
    EFP Energy =                            0.0000000000000000
    Total Energy =                       -115.0892642583092709

    Alert: EFP and PCM quantities not currently incorporated into SCF psivars.

Properties will be evaluated at   0.000000,   0.000000,   0.000000 Bohr

Properties computed using the SCF density matrix

  Nuclear Dipole Moment: (a.u.)
     X:    -2.1327      Y:    -0.8552      Z:     0.0413

  Electronic Dipole Moment: (a.u.)
     X:     1.7606      Y:     0.2593      Z:    -0.0177

  Dipole Moment: (a.u.)
     X:    -0.3721      Y:    -0.5959      Z:     0.0236     Total:     0.7029

  Dipole Moment: (Debye)
     X:    -0.9457      Y:    -1.5145      Z:     0.0600     Total:     1.7866


  //>>>>>>>>>>>>>>>>>>>>>>>>>>>>>>>>>>>//
  //               DFMP2               //
  //<<<<<<<<<<<<<<<<<<<<<<<<<<<<<<<<<<<//

	 --------------------------------------------------------
	                          DF-MP2                         
	      2nd-Order Density-Fitted Moller-Plesset Theory     
	              RMP2 Wavefunction,  16 Threads             
	                                                         
	        Rob Parrish, Justin Turney, Andy Simmonett,      
	           Ed Hohenstein, and C. David Sherrill          
	 --------------------------------------------------------

   => Auxiliary Basis Set <=

  Basis Set: file /usr/local/hpc5/psi4conda/envs/p4env/share/psi4/basis/cc-pvtz-ri.gbs
    Number of shells: 86
    Number of basis function: 282
    Number of Cartesian functions: 342
    Spherical Harmonics?: true
    Max angular momentum: 4

	 --------------------------------------------------------
	                 NBF =   116, NAUX =   282
	 --------------------------------------------------------
	   CLASS    FOCC     OCC    AOCC    AVIR     VIR    FVIR
	   PAIRS       2       9       7     107     107       0
	 --------------------------------------------------------


         ------------------------------------------------------------
                                     CPHF                           
                                  Rob Parrish                       
         ------------------------------------------------------------

  ==> Geometry <==

    Molecular point group: c1
    Full point group: C1

    Geometry (in Angstrom), charge = 0, multiplicity = 1:

       Center              X                  Y                   Z               Mass       
    ------------   -----------------  -----------------  -----------------  -----------------
           C         -0.726034583426    -0.028677513671     0.004492680758    12.000000000000
           H         -1.106766108610    -0.573994865625    -0.861595362232     1.007825032070
           H         -1.118605660440     0.981401959959    -0.030710690908     1.007825032070
           H         -1.098434147077    -0.509043155635     0.911592329460     1.007825032070
           O          0.688263806393     0.079019619356    -0.006146641022    15.994914619560
           H          1.045329251230    -0.811004398649     0.024771797088     1.007825032070

  Nuclear repulsion =   40.383412668701133
  Reference energy  = -115.089264258309271

  ==> Basis Set <==

  Basis Set: file /usr/local/hpc5/psi4conda/envs/p4env/share/psi4/basis/cc-pvtz.gbs
    Number of shells: 44
    Number of basis function: 116
    Number of Cartesian functions: 130
    Spherical Harmonics?: true
    Max angular momentum: 3

  ==> CGRSolver (by Rob Parrish) <==

   Number of roots    =         1
   Preconditioning    =    JACOBI
   Convergence cutoff =     1E-06
   Maximum iterations =       100

  ==> CPHFRHamiltonian (by Rob Parrish) <== 

  ==> DFJK: Density-Fitted J/K Matrices <==

    J tasked:                  Yes
    K tasked:                  Yes
    wK tasked:                  No
    OpenMP threads:             16
    Integrals threads:          16
    Memory (MB):             39339
    Algorithm:                Core
    Integral Cache:           NONE
    Schwarz Cutoff:          1E-12
    Fitting Condition:       1E-12

   => Auxiliary Basis Set <=

  Basis Set: file /usr/local/hpc5/psi4conda/envs/p4env/share/psi4/basis/cc-pvtz-jkfit.gbs
    Number of shells: 90
    Number of basis function: 278
    Number of Cartesian functions: 332
    Spherical Harmonics?: true
    Max angular momentum: 4

  ==> CPHF Iterations <==

  => Iterations <=

             Iter  Converged  Remaining    Residual
  CGR           1          0          1   5.668E-02
  CGR           2          0          1   1.165E-02
  CGR           3          0          1   3.822E-03
  CGR           4          0          1   1.170E-03
  CGR           5          0          1   2.508E-04
  CGR           6          0          1   5.237E-05
  CGR           7          0          1   8.999E-06
  CGR           8          0          1   2.253E-06
  CGR           9          1          0   4.930E-07

    CGRSolver converged.

  ==> DFCorrGrad: Density-Fitted Correlated Gradients <==

    OpenMP threads:             16
    Integrals threads:          16
    Memory (MB):             39339
    Schwarz Cutoff:          0E+00
    Fitting Condition:       1E-12

   => Auxiliary Basis Set <=

  Basis Set: file /usr/local/hpc5/psi4conda/envs/p4env/share/psi4/basis/cc-pvtz-jkfit.gbs
    Number of shells: 90
    Number of basis function: 278
    Number of Cartesian functions: 332
    Spherical Harmonics?: true
    Max angular momentum: 4

	-----------------------------------------------------------
	 ==================> DF-MP2 Energies <==================== 
	-----------------------------------------------------------
	 Reference Energy          =    -115.0892642583092709 [Eh]
	 Singles Energy            =      -0.0000000000000000 [Eh]
	 Same-Spin Energy          =      -0.0982295306046360 [Eh]
	 Opposite-Spin Energy      =      -0.3298646117027291 [Eh]
	 Correlation Energy        =      -0.4280941423073651 [Eh]
	 Total Energy              =    -115.5173584006166294 [Eh]
	-----------------------------------------------------------
	 ================> DF-SCS-MP2 Energies <================== 
	-----------------------------------------------------------
	 SCS Same-Spin Scale       =       0.3333333333333333 [-]
	 SCS Opposite-Spin Scale   =       1.2000000000000000 [-]
	 SCS Same-Spin Energy      =      -0.0327431768682120 [Eh]
	 SCS Opposite-Spin Energy  =      -0.3958375340432749 [Eh]
	 SCS Correlation Energy    =      -0.4285807109114869 [Eh]
	 SCS Total Energy          =    -115.5178449692207607 [Eh]
	-----------------------------------------------------------


  -Total Gradient:
     Atom            X                  Y                   Z
    ------   -----------------  -----------------  -----------------
       1       -0.000072666267     0.001576581357    -0.000003824787
       2       -0.000086986198    -0.000305297267    -0.000266750454
       3        0.000203749863    -0.000772551511     0.000022558546
       4       -0.000073419344    -0.000267821522     0.000245466164
       5       -0.000080529986    -0.000234298711     0.000003247541
       6        0.000109851933     0.000003387654    -0.000000697010


*** tstop() called on wr27 at Fri Mar 31 14:45:51 2017
Module time:
	user time   =      94.15 seconds =       1.57 minutes
	system time =       3.68 seconds =       0.06 minutes
	total time  =         29 seconds =       0.48 minutes
Total time:
	user time   =     369.65 seconds =       6.16 minutes
	system time =      14.66 seconds =       0.24 minutes
	total time  =        130 seconds =       2.17 minutes

  //>>>>>>>>>>>>>>>>>>>>>>>>>>>>>>>>>>>//
  //    Loading displacement 5 of 25   //
  //<<<<<<<<<<<<<<<<<<<<<<<<<<<<<<<<<<<//
gradient() will perform analytic gradient computation.

*** tstart() called on wr27
*** at Fri Mar 31 14:45:51 2017

    SCF Algorithm Type (re)set to DF.

         ---------------------------------------------------------
                                   SCF
            by Justin Turney, Rob Parrish, and Andy Simmonett
                              RHF Reference
                       16 Threads,  55000 MiB Core
         ---------------------------------------------------------

  ==> Geometry <==

    Molecular point group: c1
    Full point group: C1

    Geometry (in Angstrom), charge = 0, multiplicity = 1:

       Center              X                  Y                   Z               Mass       
    ------------   -----------------  -----------------  -----------------  -----------------
           C         -0.726034583426    -0.029112680939     0.004065999212    12.000000000000
           H         -1.107597332444    -0.572937925263    -0.860394455338     1.007825032070
           H         -1.118085040690     0.982524936214    -0.029615546534     1.007825032070
           H         -1.098191336610    -0.507862977799     0.912783652608     1.007825032070
           O          0.688296114466     0.079139208313    -0.006043648983    15.994914619560
           H          1.044884292274    -0.811080994532     0.024730288352     1.007825032070

  Running in c1 symmetry.

  Rotational constants: A =      4.30434  B =      0.83000  C =      0.80070 [cm^-1]
  Rotational constants: A = 129040.87285  B =  24882.77028  C =  24004.29228 [MHz]
  Nuclear repulsion =   40.382889802633045

  Charge       = 0
  Multiplicity = 1
  Electrons    = 18
  Nalpha       = 9
  Nbeta        = 9

  ==> Algorithm <==

  SCF Algorithm Type is DF.
  DIIS enabled.
  MOM disabled.
  Fractional occupation disabled.
  Guess Type is SAD.
  Energy threshold   = 1.00e-10
  Density threshold  = 1.00e-10
  Integral threshold = 0.00e+00

  ==> Primary Basis <==

  Basis Set: file /usr/local/hpc5/psi4conda/envs/p4env/share/psi4/basis/cc-pvtz.gbs
    Number of shells: 44
    Number of basis function: 116
    Number of Cartesian functions: 130
    Spherical Harmonics?: true
    Max angular momentum: 3

  ==> Pre-Iterations <==

   -------------------------------------------------------
    Irrep   Nso     Nmo     Nalpha   Nbeta   Ndocc  Nsocc
   -------------------------------------------------------
     A        116     116       0       0       0       0
   -------------------------------------------------------
    Total     116     116       9       9       9       0
   -------------------------------------------------------

  ==> Integral Setup <==

  ==> DFJK: Density-Fitted J/K Matrices <==

    J tasked:                  Yes
    K tasked:                  Yes
    wK tasked:                  No
    OpenMP threads:             16
    Integrals threads:          16
    Memory (MB):             39339
    Algorithm:                Core
    Integral Cache:           NONE
    Schwarz Cutoff:          1E-12
    Fitting Condition:       1E-12

   => Auxiliary Basis Set <=

  Basis Set: file /usr/local/hpc5/psi4conda/envs/p4env/share/psi4/basis/cc-pvtz-jkfit.gbs
    Number of shells: 90
    Number of basis function: 278
    Number of Cartesian functions: 332
    Spherical Harmonics?: true
    Max angular momentum: 4

  Minimum eigenvalue in the overlap matrix is 1.8320211443E-03.
  Using Symmetric Orthogonalization.

  SCF Guess: Superposition of Atomic Densities via on-the-fly atomic UHF.

  ==> Iterations <==

                           Total Energy        Delta E     RMS |[F,P]|

   @DF-RHF iter   0:  -115.44004366684588   -1.15440e+02   2.18740e-02 
   @DF-RHF iter   1:  -114.98611392690258    4.53930e-01   3.91254e-03 
   @DF-RHF iter   2:  -115.05708567969540   -7.09718e-02   2.56427e-03 DIIS
   @DF-RHF iter   3:  -115.08686209028841   -2.97764e-02   4.03141e-04 DIIS
   @DF-RHF iter   4:  -115.08905615064099   -2.19406e-03   1.05202e-04 DIIS
   @DF-RHF iter   5:  -115.08923672734474   -1.80577e-04   2.85878e-05 DIIS
   @DF-RHF iter   6:  -115.08924942875838   -1.27014e-05   8.16766e-06 DIIS
   @DF-RHF iter   7:  -115.08925028417222   -8.55414e-07   2.08756e-06 DIIS
   @DF-RHF iter   8:  -115.08925034754385   -6.33716e-08   5.24455e-07 DIIS
   @DF-RHF iter   9:  -115.08925035240843   -4.86457e-09   1.36373e-07 DIIS
   @DF-RHF iter  10:  -115.08925035276883   -3.60401e-10   2.91580e-08 DIIS
   @DF-RHF iter  11:  -115.08925035278477   -1.59446e-11   5.36127e-09 DIIS
   @DF-RHF iter  12:  -115.08925035278509   -3.12639e-13   1.25078e-09 DIIS
   @DF-RHF iter  13:  -115.08925035278499    9.94760e-14   3.05439e-10 DIIS
   @DF-RHF iter  14:  -115.08925035278548   -4.97380e-13   5.72641e-11 DIIS

  ==> Post-Iterations <==

    Orbital Energies (a.u.)
    -----------------------

    Doubly Occupied:                                                      

       1A    -20.552443     2A    -11.268209     3A     -1.354809  
       4A     -0.924079     5A     -0.688657     6A     -0.618602  
       7A     -0.590742     8A     -0.502293     9A     -0.449185  

    Virtual:                                                              

      10A      0.138566    11A      0.178842    12A      0.220480  
      13A      0.224047    14A      0.290854    15A      0.386480  
      16A      0.404523    17A      0.545342    18A      0.584421  
      19A      0.624366    20A      0.625800    21A      0.639579  
      22A      0.690700    23A      0.704482    24A      0.721755  
      25A      0.833500    26A      0.865226    27A      0.872406  
      28A      0.927996    29A      1.069736    30A      1.101686  
      31A      1.178181    32A      1.190351    33A      1.262990  
      34A      1.272623    35A      1.283540    36A      1.365745  
      37A      1.447610    38A      1.492665    39A      1.523955  
      40A      1.546268    41A      1.584687    42A      1.619635  
      43A      1.778243    44A      2.093194    45A      2.180886  
      46A      2.199797    47A      2.300632    48A      2.324500  
      49A      2.488736    50A      2.511100    51A      2.576818  
      52A      2.806258    53A      2.951687    54A      3.056958  
      55A      3.112195    56A      3.117904    57A      3.145548  
      58A      3.224927    59A      3.245581    60A      3.315903  
      61A      3.317180    62A      3.344683    63A      3.386686  
      64A      3.502554    65A      3.615773    66A      3.635480  
      67A      3.702935    68A      3.710231    69A      3.747408  
      70A      3.763172    71A      3.817506    72A      3.843297  
      73A      3.907016    74A      4.012168    75A      4.029820  
      76A      4.119004    77A      4.161926    78A      4.173518  
      79A      4.249677    80A      4.257947    81A      4.289892  
      82A      4.403676    83A      4.439989    84A      4.468678  
      85A      4.562802    86A      4.584519    87A      4.714738  
      88A      4.788100    89A      5.000724    90A      5.034908  
      91A      5.060018    92A      5.204842    93A      5.275644  
      94A      5.318990    95A      5.377496    96A      5.444844  
      97A      5.551021    98A      5.554722    99A      5.570173  
     100A      5.792226   101A      5.949469   102A      6.195305  
     103A      6.215199   104A      6.253022   105A      6.437359  
     106A      6.645207   107A      7.001805   108A      7.131770  
     109A      7.183535   110A      7.244526   111A      7.362460  
     112A      7.436259   113A      7.601867   114A      7.917379  
     115A     12.138933   116A     13.753201  

    Final Occupation by Irrep:
              A 
    DOCC [     9 ]

  Energy converged.

  @DF-RHF Final Energy:  -115.08925035278548

   => Energetics <=

    Nuclear Repulsion Energy =             40.3828898026330450
    One-Electron Energy =                -237.0462444107997726
    Two-Electron Energy =                  81.5741042553812576
    DFT Exchange-Correlation Energy =       0.0000000000000000
    Empirical Dispersion Energy =           0.0000000000000000
    PCM Polarization Energy =               0.0000000000000000
    EFP Energy =                            0.0000000000000000
    Total Energy =                       -115.0892503527854842

    Alert: EFP and PCM quantities not currently incorporated into SCF psivars.

Properties will be evaluated at   0.000000,   0.000000,   0.000000 Bohr

Properties computed using the SCF density matrix

  Nuclear Dipole Moment: (a.u.)
     X:    -2.1332      Y:    -0.8521      Z:     0.0445

  Electronic Dipole Moment: (a.u.)
     X:     1.7608      Y:     0.2556      Z:    -0.0218

  Dipole Moment: (a.u.)
     X:    -0.3724      Y:    -0.5966      Z:     0.0227     Total:     0.7036

  Dipole Moment: (Debye)
     X:    -0.9465      Y:    -1.5163      Z:     0.0576     Total:     1.7884


  //>>>>>>>>>>>>>>>>>>>>>>>>>>>>>>>>>>>//
  //               DFMP2               //
  //<<<<<<<<<<<<<<<<<<<<<<<<<<<<<<<<<<<//

	 --------------------------------------------------------
	                          DF-MP2                         
	      2nd-Order Density-Fitted Moller-Plesset Theory     
	              RMP2 Wavefunction,  16 Threads             
	                                                         
	        Rob Parrish, Justin Turney, Andy Simmonett,      
	           Ed Hohenstein, and C. David Sherrill          
	 --------------------------------------------------------

   => Auxiliary Basis Set <=

  Basis Set: file /usr/local/hpc5/psi4conda/envs/p4env/share/psi4/basis/cc-pvtz-ri.gbs
    Number of shells: 86
    Number of basis function: 282
    Number of Cartesian functions: 342
    Spherical Harmonics?: true
    Max angular momentum: 4

	 --------------------------------------------------------
	                 NBF =   116, NAUX =   282
	 --------------------------------------------------------
	   CLASS    FOCC     OCC    AOCC    AVIR     VIR    FVIR
	   PAIRS       2       9       7     107     107       0
	 --------------------------------------------------------


         ------------------------------------------------------------
                                     CPHF                           
                                  Rob Parrish                       
         ------------------------------------------------------------

  ==> Geometry <==

    Molecular point group: c1
    Full point group: C1

    Geometry (in Angstrom), charge = 0, multiplicity = 1:

       Center              X                  Y                   Z               Mass       
    ------------   -----------------  -----------------  -----------------  -----------------
           C         -0.726034583426    -0.029112680939     0.004065999212    12.000000000000
           H         -1.107597332444    -0.572937925263    -0.860394455338     1.007825032070
           H         -1.118085040690     0.982524936214    -0.029615546534     1.007825032070
           H         -1.098191336610    -0.507862977799     0.912783652608     1.007825032070
           O          0.688296114466     0.079139208313    -0.006043648983    15.994914619560
           H          1.044884292274    -0.811080994532     0.024730288352     1.007825032070

  Nuclear repulsion =   40.382889802633045
  Reference energy  = -115.089250352785484

  ==> Basis Set <==

  Basis Set: file /usr/local/hpc5/psi4conda/envs/p4env/share/psi4/basis/cc-pvtz.gbs
    Number of shells: 44
    Number of basis function: 116
    Number of Cartesian functions: 130
    Spherical Harmonics?: true
    Max angular momentum: 3

  ==> CGRSolver (by Rob Parrish) <==

   Number of roots    =         1
   Preconditioning    =    JACOBI
   Convergence cutoff =     1E-06
   Maximum iterations =       100

  ==> CPHFRHamiltonian (by Rob Parrish) <== 

  ==> DFJK: Density-Fitted J/K Matrices <==

    J tasked:                  Yes
    K tasked:                  Yes
    wK tasked:                  No
    OpenMP threads:             16
    Integrals threads:          16
    Memory (MB):             39339
    Algorithm:                Core
    Integral Cache:           NONE
    Schwarz Cutoff:          1E-12
    Fitting Condition:       1E-12

   => Auxiliary Basis Set <=

  Basis Set: file /usr/local/hpc5/psi4conda/envs/p4env/share/psi4/basis/cc-pvtz-jkfit.gbs
    Number of shells: 90
    Number of basis function: 278
    Number of Cartesian functions: 332
    Spherical Harmonics?: true
    Max angular momentum: 4

  ==> CPHF Iterations <==

  => Iterations <=

             Iter  Converged  Remaining    Residual
  CGR           1          0          1   5.669E-02
  CGR           2          0          1   1.166E-02
  CGR           3          0          1   3.834E-03
  CGR           4          0          1   1.172E-03
  CGR           5          0          1   2.510E-04
  CGR           6          0          1   5.240E-05
  CGR           7          0          1   9.007E-06
  CGR           8          0          1   2.255E-06
  CGR           9          1          0   4.935E-07

    CGRSolver converged.

  ==> DFCorrGrad: Density-Fitted Correlated Gradients <==

    OpenMP threads:             16
    Integrals threads:          16
    Memory (MB):             39339
    Schwarz Cutoff:          0E+00
    Fitting Condition:       1E-12

   => Auxiliary Basis Set <=

  Basis Set: file /usr/local/hpc5/psi4conda/envs/p4env/share/psi4/basis/cc-pvtz-jkfit.gbs
    Number of shells: 90
    Number of basis function: 278
    Number of Cartesian functions: 332
    Spherical Harmonics?: true
    Max angular momentum: 4

	-----------------------------------------------------------
	 ==================> DF-MP2 Energies <==================== 
	-----------------------------------------------------------
[...]
      85A      4.562801    86A      4.584529    87A      4.714734  
      88A      4.788076    89A      5.000738    90A      5.034908  
      91A      5.060073    92A      5.204780    93A      5.275703  
      94A      5.318998    95A      5.377462    96A      5.444855  
      97A      5.551569    98A      5.554131    99A      5.570195  
     100A      5.792223   101A      5.949452   102A      6.195296  
     103A      6.215206   104A      6.253006   105A      6.437382  
     106A      6.645182   107A      7.001801   108A      7.131771  
     109A      7.183520   110A      7.244533   111A      7.362467  
     112A      7.436265   113A      7.601852   114A      7.917372  
     115A     12.138948   116A     13.753179  

    Final Occupation by Irrep:
              A 
    DOCC [     9 ]

  Energy converged.

  @DF-RHF Final Energy:  -115.08925183600292

   => Energetics <=

    Nuclear Repulsion Energy =             40.3828384097811721
    One-Electron Energy =                -237.0461501333439571
    Two-Electron Energy =                  81.5740598875598835
    DFT Exchange-Correlation Energy =       0.0000000000000000
    Empirical Dispersion Energy =           0.0000000000000000
    PCM Polarization Energy =               0.0000000000000000
    EFP Energy =                            0.0000000000000000
    Total Energy =                       -115.0892518360029158

    Alert: EFP and PCM quantities not currently incorporated into SCF psivars.

Properties will be evaluated at   0.000000,   0.000000,   0.000000 Bohr

Properties computed using the SCF density matrix

  Nuclear Dipole Moment: (a.u.)
     X:    -2.1332      Y:    -0.8521      Z:     0.0413

  Electronic Dipole Moment: (a.u.)
     X:     1.7608      Y:     0.2556      Z:    -0.0177

  Dipole Moment: (a.u.)
     X:    -0.3724      Y:    -0.5965      Z:     0.0236     Total:     0.7036

  Dipole Moment: (Debye)
     X:    -0.9465      Y:    -1.5163      Z:     0.0600     Total:     1.7885


  //>>>>>>>>>>>>>>>>>>>>>>>>>>>>>>>>>>>//
  //               DFMP2               //
  //<<<<<<<<<<<<<<<<<<<<<<<<<<<<<<<<<<<//

	 --------------------------------------------------------
	                          DF-MP2                         
	      2nd-Order Density-Fitted Moller-Plesset Theory     
	              RMP2 Wavefunction,  16 Threads             
	                                                         
	        Rob Parrish, Justin Turney, Andy Simmonett,      
	           Ed Hohenstein, and C. David Sherrill          
	 --------------------------------------------------------

   => Auxiliary Basis Set <=

  Basis Set: file /usr/local/hpc5/psi4conda/envs/p4env/share/psi4/basis/cc-pvtz-ri.gbs
    Number of shells: 86
    Number of basis function: 282
    Number of Cartesian functions: 342
    Spherical Harmonics?: true
    Max angular momentum: 4

	 --------------------------------------------------------
	                 NBF =   116, NAUX =   282
	 --------------------------------------------------------
	   CLASS    FOCC     OCC    AOCC    AVIR     VIR    FVIR
	   PAIRS       2       9       7     107     107       0
	 --------------------------------------------------------


         ------------------------------------------------------------
                                     CPHF                           
                                  Rob Parrish                       
         ------------------------------------------------------------

  ==> Geometry <==

    Molecular point group: c1
    Full point group: C1

    Geometry (in Angstrom), charge = 0, multiplicity = 1:

       Center              X                  Y                   Z               Mass       
    ------------   -----------------  -----------------  -----------------  -----------------
           C         -0.726034583426    -0.029112680939     0.004493291581    12.000000000000
           H         -1.107094418177    -0.572882198611    -0.861591773846     1.007825032070
           H         -1.118069848546     0.982524897947    -0.030714915281     1.007825032070
           H         -1.098725257575    -0.507926220663     0.911595585927     1.007825032070
           O          0.688298058359     0.079139752979    -0.006147479214    15.994914619560
           H          1.044869255839    -0.811082084291     0.024775206364     1.007825032070

  Nuclear repulsion =   40.382838409781172
  Reference energy  = -115.089251836002916

  ==> Basis Set <==

  Basis Set: file /usr/local/hpc5/psi4conda/envs/p4env/share/psi4/basis/cc-pvtz.gbs
    Number of shells: 44
    Number of basis function: 116
    Number of Cartesian functions: 130
    Spherical Harmonics?: true
    Max angular momentum: 3

  ==> CGRSolver (by Rob Parrish) <==

   Number of roots    =         1
   Preconditioning    =    JACOBI
   Convergence cutoff =     1E-06
   Maximum iterations =       100

  ==> CPHFRHamiltonian (by Rob Parrish) <== 

  ==> DFJK: Density-Fitted J/K Matrices <==

    J tasked:                  Yes
    K tasked:                  Yes
    wK tasked:                  No
    OpenMP threads:             16
    Integrals threads:          16
    Memory (MB):             39339
    Algorithm:                Core
    Integral Cache:           NONE
    Schwarz Cutoff:          1E-12
    Fitting Condition:       1E-12

   => Auxiliary Basis Set <=

  Basis Set: file /usr/local/hpc5/psi4conda/envs/p4env/share/psi4/basis/cc-pvtz-jkfit.gbs
    Number of shells: 90
    Number of basis function: 278
    Number of Cartesian functions: 332
    Spherical Harmonics?: true
    Max angular momentum: 4

  ==> CPHF Iterations <==

  => Iterations <=

             Iter  Converged  Remaining    Residual
  CGR           1          0          1   5.669E-02
  CGR           2          0          1   1.166E-02
  CGR           3          0          1   3.835E-03
  CGR           4          0          1   1.172E-03
  CGR           5          0          1   2.510E-04
  CGR           6          0          1   5.240E-05
  CGR           7          0          1   9.008E-06
  CGR           8          0          1   2.255E-06
  CGR           9          1          0   4.936E-07

    CGRSolver converged.

  ==> DFCorrGrad: Density-Fitted Correlated Gradients <==

    OpenMP threads:             16
    Integrals threads:          16
    Memory (MB):             39339
    Schwarz Cutoff:          0E+00
    Fitting Condition:       1E-12

   => Auxiliary Basis Set <=

  Basis Set: file /usr/local/hpc5/psi4conda/envs/p4env/share/psi4/basis/cc-pvtz-jkfit.gbs
    Number of shells: 90
    Number of basis function: 278
    Number of Cartesian functions: 332
    Spherical Harmonics?: true
    Max angular momentum: 4

	-----------------------------------------------------------
	 ==================> DF-MP2 Energies <==================== 
	-----------------------------------------------------------
	 Reference Energy          =    -115.0892518360029158 [Eh]
	 Singles Energy            =      -0.0000000000000000 [Eh]
	 Same-Spin Energy          =      -0.0982339902423437 [Eh]
	 Opposite-Spin Energy      =      -0.3298745643706794 [Eh]
	 Correlation Energy        =      -0.4281085546130232 [Eh]
	 Total Energy              =    -115.5173603906159343 [Eh]
	-----------------------------------------------------------
	 ================> DF-SCS-MP2 Energies <================== 
	-----------------------------------------------------------
	 SCS Same-Spin Scale       =       0.3333333333333333 [-]
	 SCS Opposite-Spin Scale   =       1.2000000000000000 [-]
	 SCS Same-Spin Energy      =      -0.0327446634141146 [Eh]
	 SCS Opposite-Spin Energy  =      -0.3958494772448153 [Eh]
	 SCS Correlation Energy    =      -0.4285941406589299 [Eh]
	 SCS Total Energy          =    -115.5178459766618460 [Eh]
	-----------------------------------------------------------


  -Total Gradient:
     Atom            X                  Y                   Z
    ------   -----------------  -----------------  -----------------
       1        0.000002771176    -0.000005761162     0.000000147075
       2       -0.000000206843     0.000000330106    -0.000000290526
       3        0.000002459835     0.000001073756    -0.000000044385
       4       -0.000000200388     0.000000372781     0.000000293108
       5       -0.000001482070     0.000003444310    -0.000000074449
       6       -0.000003341710     0.000000540209    -0.000000030824


*** tstop() called on wr27 at Fri Mar 31 14:51:36 2017
Module time:
	user time   =      85.21 seconds =       1.42 minutes
	system time =       3.16 seconds =       0.05 minutes
	total time  =         11 seconds =       0.18 minutes
Total time:
	user time   =    2223.50 seconds =      37.06 minutes
	system time =      88.23 seconds =       1.47 minutes
	total time  =        475 seconds =       7.92 minutes

-------------------------------------------------------------

  Computing second-derivative from gradients using projected, 
  symmetry-adapted, cartesian coordinates (fd_freq_1).

  25 gradients passed in, including the reference geometry.
  Generating complete list of displacements from unique ones.


	  Irrep      Harmonic Frequency   
	                  (cm-1)          
	-----------------------------------------------
	      A          308.9257  
	      A         1069.1664  
	      A         1103.7565  
	      A         1187.8154  
	      A         1387.2188  
	      A         1496.5543  
	      A         1521.7266  
	      A         1536.7235  
	      A         3053.0750  
	      A         3121.1410  
	      A         3183.0777  
	      A         3882.5793  
	-----------------------------------------------

	Normal Modes (non-mass-weighted).
	Molecular mass is   32.02621 amu.
	Frequencies in cm^-1; force constants in au.

   Frequency:        308.93
   Force constant:   0.0036
	     X       Y       Z           mass	
  C 	  -0.000  -0.000  -0.003      12.000000
  H 	   0.053  -0.211   0.108       1.007825
  H 	  -0.001  -0.011  -0.288       1.007825
  H 	  -0.052   0.218   0.093       1.007825
  O 	   0.000   0.002   0.062      15.994915
  H 	  -0.004  -0.031  -0.854       1.007825

   Frequency:       1069.17
   Force constant:   0.0433
	     X       Y       Z           mass	
  C 	  -0.126   0.040  -0.001      12.000000
  H 	   0.105  -0.152   0.024       1.007825
  H 	  -0.458  -0.094   0.006       1.007825
  H 	   0.105  -0.153  -0.014       1.007825
  O 	   0.135   0.009  -0.001      15.994915
  H 	  -0.396  -0.216   0.010       1.007825

   Frequency:       1103.76
   Force constant:   0.0461
	     X       Y       Z           mass	
  C 	   0.149   0.063  -0.003      12.000000
  H 	   0.307  -0.128   0.039       1.007825
  H 	  -0.272  -0.101   0.005       1.007825
  H 	   0.307  -0.130  -0.032       1.007825
  O 	  -0.108  -0.016   0.001      15.994915
  H 	  -0.407  -0.130   0.007       1.007825

   Frequency:       1187.82
   Force constant:   0.0534
	     X       Y       Z           mass	
  C 	   0.001   0.004   0.121      12.000000
  H 	   0.563   0.088  -0.174       1.007825
  H 	  -0.001  -0.009  -0.245       1.007825
  H 	  -0.564  -0.101  -0.162       1.007825
  O 	  -0.000  -0.002  -0.054      15.994915
  H 	  -0.000  -0.000  -0.002       1.007825

   Frequency:       1387.22
   Force constant:   0.0728
	     X       Y       Z           mass	
  C 	  -0.029   0.107  -0.004      12.000000
  H 	   0.127  -0.166   0.101       1.007825
  H 	  -0.384  -0.027   0.003       1.007825
  H 	   0.126  -0.173  -0.090       1.007825
  O 	  -0.013  -0.071   0.003      15.994915
  H 	   0.677   0.221  -0.011       1.007825

   Frequency:       1496.55
   Force constant:   0.0848
	     X       Y       Z           mass	
  C 	  -0.102   0.010   0.000      12.000000
  H 	   0.460  -0.185  -0.103       1.007825
  H 	   0.539   0.242  -0.012       1.007825
  H 	   0.461  -0.177   0.112       1.007825
  O 	  -0.015  -0.001   0.000      15.994915
  H 	   0.004   0.009  -0.000       1.007825

   Frequency:       1521.73
   Force constant:   0.0876
	     X       Y       Z           mass	
  C 	  -0.000  -0.002  -0.057      12.000000
  H 	   0.300  -0.362   0.072       1.007825
  H 	   0.003   0.026   0.706       1.007825
  H 	  -0.299   0.367   0.048       1.007825
  O 	  -0.000  -0.000  -0.008      15.994915
  H 	  -0.000  -0.000  -0.011       1.007825

   Frequency:       1536.72
   Force constant:   0.0894
	     X       Y       Z           mass	
  C 	   0.023   0.045  -0.002      12.000000
  H 	  -0.262  -0.441   0.401       1.007825
  H 	   0.287   0.124  -0.006       1.007825
  H 	  -0.265  -0.469  -0.366       1.007825
  O 	   0.004   0.018  -0.001      15.994915
  H 	  -0.102  -0.028   0.002       1.007825

   Frequency:       3053.07
   Force constant:   0.3527
	     X       Y       Z           mass	
  C 	  -0.042  -0.024   0.001      12.000000
  H 	   0.211   0.321   0.528       1.007825
  H 	   0.114  -0.315   0.011       1.007825
  H 	   0.206   0.281  -0.552       1.007825
  O 	  -0.002  -0.000   0.000      15.994915
  H 	  -0.005   0.004  -0.000       1.007825

   Frequency:       3121.14
   Force constant:   0.3687
	     X       Y       Z           mass	
  C 	   0.000   0.003   0.090      12.000000
  H 	  -0.220  -0.347  -0.529       1.007825
  H 	   0.000   0.001   0.025       1.007825
  H 	   0.215   0.307  -0.555       1.007825
  O 	  -0.000  -0.000  -0.000      15.994915
  H 	  -0.000  -0.000  -0.002       1.007825

   Frequency:       3183.08
   Force constant:   0.3834
	     X       Y       Z           mass	
  C 	  -0.015   0.086  -0.003      12.000000
  H 	  -0.072  -0.094  -0.182       1.007825
  H 	   0.313  -0.841   0.029       1.007825
  H 	  -0.070  -0.080   0.190       1.007825
  O 	   0.000  -0.002   0.000      15.994915
  H 	   0.002   0.016  -0.001       1.007825

   Frequency:       3882.58
   Force constant:   0.5705
	     X       Y       Z           mass	
  C 	  -0.001  -0.003   0.000      12.000000
  H 	  -0.004  -0.000   0.000       1.007825
  H 	  -0.003   0.014  -0.001       1.007825
  H 	  -0.004  -0.000  -0.000       1.007825
  O 	   0.025  -0.055   0.002      15.994915
  H 	  -0.372   0.891  -0.031       1.007825

-------------------------------------------------------------

 #  #
 Irrep: 1
      1: 308.9256620
      2: 1069.1664181
      3: 1103.7564669
      4: 1187.8154291
      5: 1387.2188427
      6: 1496.5543440
      7: 1521.7266221
      8: 1536.7234565
      9: 3053.0749661
     10: 3121.1410070
     11: 3183.0776863
     12: 3882.5793029


            *********************************************
            * Thermodynamic Analysis by R.A. King, 2012 *
            *********************************************

  ==> Inputs to Thermochemistry <==

  Temperature:                       298.15 [K]
  Pressure:                       101325.00 [Pa]
  Multiplicity:                           1
  Full point group:                 C1 (C1)
  Rotor type:                ASYMMETRIC_TOP
  Rotational symmetry no.:                1
  Rotational constants: A =      4.30433  B =      0.83000  C =      0.80069 [cm^-1]
  Rotational constants: A = 129040.58834  B =  24882.70675  C =  24004.20917 [MHz]

  No.    Vib. Freq. [cm^-1]      Vib. Temp. [K]
    1               308.926             444.475
    2              1069.166            1538.290
    3              1103.756            1588.057
    4              1187.815            1708.999
    5              1387.219            1995.896
    6              1496.554            2153.205
    7              1521.727            2189.422
    8              1536.723            2211.000
    9              3053.075            4392.688
   10              3121.141            4490.620
   11              3183.078            4579.733
   12              3882.579            5586.159
    Warning: used thermodynamic relations are not appropriate for low frequency modes.

  ==> Components <==

  Entropy, S
    Electronic S          0.000 [cal/(mol K)]       0.000 [J/(mol K)]      0.00000000 [mEh/K] (multiplicity = 1)
    Translational S      36.324 [cal/(mol K)]     151.980 [J/(mol K)]      0.05788607 [mEh/K] (mol. weight = 32.0262 [u], P = 101325.00 [Pa])
    Rotational S         18.973 [cal/(mol K)]      79.383 [J/(mol K)]      0.03023537 [mEh/K] (symmetry no. = 1)
    Vibrational S         1.595 [cal/(mol K)]       6.675 [J/(mol K)]      0.00254239 [mEh/K]
  Total S                56.892 [cal/(mol K)]     238.038 [J/(mol K)]      0.09066383 [mEh/K]

  Constant volume heat capacity, Cv
    Electronic Cv         0.000 [cal/(mol K)]       0.000 [J/(mol K)]      0.00000000 [mEh/K]
    Translational Cv      2.981 [cal/(mol K)]      12.472 [J/(mol K)]      0.00475022 [mEh/K]
    Rotational Cv         2.981 [cal/(mol K)]      12.472 [J/(mol K)]      0.00475022 [mEh/K]
    Vibrational Cv        2.776 [cal/(mol K)]      11.614 [J/(mol K)]      0.00442362 [mEh/K]
  Total Cv                8.737 [cal/(mol K)]      36.558 [J/(mol K)]      0.01392407 [mEh/K]

  Constant pressure heat capacity, Cp
    Electronic Cp         0.000 [cal/(mol K)]       0.000 [J/(mol K)]      0.00000000 [mEh/K]
    Translational Cp      4.968 [cal/(mol K)]      20.786 [J/(mol K)]      0.00791704 [mEh/K]
    Rotational Cp         2.981 [cal/(mol K)]      12.472 [J/(mol K)]      0.00475022 [mEh/K]
    Vibrational Cp        2.776 [cal/(mol K)]      11.614 [J/(mol K)]      0.00442362 [mEh/K]
  Total Cp               10.725 [cal/(mol K)]      44.872 [J/(mol K)]      0.01709088 [mEh/K]

  ==> Energy Analysis <== 

  Raw electronic energy, E0
  Total E0, Electronic energy at well bottom at 0 [K]             -115.51736039 [Eh]

  Zero-point energy, ZPE_vib = Sum_i nu_i / 2
    Electronic ZPE        0.000 [kcal/mol]       0.000 [kJ/mol]      0.00000000 [Eh]
    Translational ZPE     0.000 [kcal/mol]       0.000 [kJ/mol]      0.00000000 [Eh]
    Rotational ZPE        0.000 [kcal/mol]       0.000 [kJ/mol]      0.00000000 [Eh]
    Vibrational ZPE      32.668 [kcal/mol]     136.684 [kJ/mol]      0.05206015 [Eh]       11425.880 [cm^-1]
    Correction ZPE       32.668 [kcal/mol]     136.684 [kJ/mol]      0.05206015 [Eh]       11425.880 [cm^-1]
  Total ZPE, Electronic energy at 0 [K]                           -115.46530024 [Eh]

  Thermal Energy, E (includes ZPE)
    Electronic E          0.000 [kcal/mol]       0.000 [kJ/mol]      0.00000000 [Eh]
    Translational E       0.889 [kcal/mol]       3.718 [kJ/mol]      0.00141628 [Eh]
    Rotational E          0.889 [kcal/mol]       3.718 [kJ/mol]      0.00141628 [Eh]
    Vibrational E        32.983 [kcal/mol]     137.999 [kJ/mol]      0.05256109 [Eh]
  Correction E           34.760 [kcal/mol]     145.436 [kJ/mol]      0.05539365 [Eh]
  Total E, Electronic energy at  298.15 [K]                       -115.46196674 [Eh]

  Enthalpy, H_trans = E_trans + k_B * T
    Electronic H          0.000 [kcal/mol]       0.000 [kJ/mol]      0.00000000 [Eh]
    Translational H       1.481 [kcal/mol]       6.197 [kJ/mol]      0.00236046 [Eh]
    Rotational H          0.889 [kcal/mol]       3.718 [kJ/mol]      0.00141628 [Eh]
    Vibrational H        32.983 [kcal/mol]     137.999 [kJ/mol]      0.05256109 [Eh]
  Correction H           35.353 [kcal/mol]     147.915 [kJ/mol]      0.05633783 [Eh]
  Total H, Enthalpy at  298.15 [K]                                -115.46102256 [Eh]

  Gibbs free energy, G = H - T * S
    Electronic G         -0.000 [kcal/mol]      -0.000 [kJ/mol]     -0.00000000 [Eh]
    Translational G      -9.349 [kcal/mol]     -39.115 [kJ/mol]     -0.01489827 [Eh]
    Rotational G         -4.768 [kcal/mol]     -19.950 [kJ/mol]     -0.00759840 [Eh]
    Vibrational G        32.507 [kcal/mol]     136.009 [kJ/mol]      0.05180308 [Eh]
  Correction G           18.390 [kcal/mol]      76.944 [kJ/mol]      0.02930641 [Eh]
  Total G, Free enthalpy at  298.15 [K]                           -115.48805398 [Eh]


*** Psi4 exiting successfully. Buy a developer a beer!
