
    -----------------------------------------------------------------------
          Psi4: An Open-Source Ab Initio Electronic Structure Package
                               Psi4 1.2.1 release

                         Git: Rev {HEAD} 406f4de 


    R. M. Parrish, L. A. Burns, D. G. A. Smith, A. C. Simmonett,
    A. E. DePrince III, E. G. Hohenstein, U. Bozkaya, A. Yu. Sokolov,
    R. Di Remigio, R. M. Richard, J. F. Gonthier, A. M. James,
    H. R. McAlexander, A. Kumar, M. Saitow, X. Wang, B. P. Pritchard,
    P. Verma, H. F. Schaefer III, K. Patkowski, R. A. King, E. F. Valeev,
    F. A. Evangelista, J. M. Turney, T. D. Crawford, and C. D. Sherrill,
    J. Chem. Theory Comput. 13(7) pp 3185--3197 (2017).
    (doi: 10.1021/acs.jctc.7b00174)


                         Additional Contributions by
    P. Kraus, H. Kruse, M. H. Lechner, M. C. Schieber, and R. A. Shaw

    -----------------------------------------------------------------------


    Psi4 started on: Thursday, 06 December 2018 04:02PM

    Process ID: 225016
    Host:       wr86
    PSIDATADIR: /usr/local/hpc1/software_molmod/psi4/psi4conda/share/psi4
    Memory:     500.0 MiB
    Threads:    16
    
  ==> Input File <==

--------------------------------------------------------------------------
memory 100 Gb

molecule conf_03 {
0 1
  C    -1.103426334780    -0.616840226742     0.598721917086
  H    -0.789220099410    -1.655216941243     0.683175492438
  H    -1.857023172790    -0.588477595108    -0.185734274002
  C    -1.732990735624    -0.172121353565     1.918364201957
  H    -2.089488708919     0.851928635962     1.856085212357
  H    -1.014214692511    -0.222267842446     2.731072125714
  H    -2.576964984056    -0.801476446115     2.182885351612
  C     0.720224271344    -0.189598707880    -1.117850413839
  H    -0.017355460102    -0.146492515449    -1.918148485694
  H     1.059171122593    -1.221946655185    -1.042141848205
  O     1.799279716653     0.665908510747    -1.393616844024
  H     2.207603725745     0.410835911913    -2.208556657027
  C     0.090756150539     0.247922348668     0.192839203863
  H    -0.215406494675     1.286068077887     0.096331312905
  H     0.853551139348     0.218174841994     0.966179213513
}
set globals {
  reference rhf
  basis 6-31G(d)
}
frequency('scf', dertype=1)

--------------------------------------------------------------------------

  Memory set to  93.132 GiB by Python driver.
gradient() will perform analytic gradient computation.

*** tstart() called on wr86
*** at Thu Dec  6 16:02:30 2018

   => Loading Basis Set <=

    Name: 6-31G(D)
    Role: ORBITAL
    Keyword: BASIS
    atoms 1, 4, 8, 13               entry C          line   111 file /usr/local/hpc1/software_molmod/psi4/psi4conda/share/psi4/basis/6-31g_d_.gbs 
    atoms 2-3, 5-7, 9-10, 12, 14-15 entry H          line    44 file /usr/local/hpc1/software_molmod/psi4/psi4conda/share/psi4/basis/6-31g_d_.gbs 
    atoms 11                        entry O          line   145 file /usr/local/hpc1/software_molmod/psi4/psi4conda/share/psi4/basis/6-31g_d_.gbs 


         ---------------------------------------------------------
                                   SCF
            by Justin Turney, Rob Parrish, Andy Simmonett
                             and Daniel Smith
                              RHF Reference
                       16 Threads,  95367 MiB Core
         ---------------------------------------------------------

  ==> Geometry <==

    Molecular point group: c1
    Full point group: C1

    Geometry (in Angstrom), charge = 0, multiplicity = 1:

       Center              X                  Y                   Z               Mass       
    ------------   -----------------  -----------------  -----------------  -----------------
         C           -1.103426334780    -0.616840226742     0.598721917086    12.000000000000
         H           -0.789220099410    -1.655216941243     0.683175492438     1.007825032070
         H           -1.857023172790    -0.588477595108    -0.185734274002     1.007825032070
         C           -1.732990735624    -0.172121353565     1.918364201957    12.000000000000
         H           -2.089488708919     0.851928635962     1.856085212357     1.007825032070
         H           -1.014214692511    -0.222267842446     2.731072125714     1.007825032070
         H           -2.576964984056    -0.801476446115     2.182885351612     1.007825032070
         C            0.720224271344    -0.189598707880    -1.117850413839    12.000000000000
         H           -0.017355460102    -0.146492515449    -1.918148485694     1.007825032070
         H            1.059171122593    -1.221946655185    -1.042141848205     1.007825032070
         O            1.799279716653     0.665908510747    -1.393616844024    15.994914619560
         H            2.207603725745     0.410835911913    -2.208556657027     1.007825032070
         C            0.090756150539     0.247922348668     0.192839203863    12.000000000000
         H           -0.215406494675     1.286068077887     0.096331312905     1.007825032070
         H            0.853551139348     0.218174841994     0.966179213513     1.007825032070

  Running in c1 symmetry.

  Rotational constants: A =      0.63501  B =      0.06624  C =      0.06273 [cm^-1]
  Rotational constants: A =  19037.23020  B =   1985.80231  C =   1880.71907 [MHz]
  Nuclear repulsion =  185.761720128440658

  Charge       = 0
  Multiplicity = 1
  Electrons    = 42
  Nalpha       = 21
  Nbeta        = 21

  ==> Algorithm <==

  SCF Algorithm Type is DF.
  DIIS enabled.
  MOM disabled.
  Fractional occupation disabled.
  Guess Type is SAD.
  Energy threshold   = 1.00e-08
  Density threshold  = 1.00e-08
  Integral threshold = 0.00e+00

  ==> Primary Basis <==

  Basis Set: 6-31G(D)
    Blend: 6-31G(D)
    Number of shells: 50
    Number of basis function: 95
    Number of Cartesian functions: 95
    Spherical Harmonics?: false
    Max angular momentum: 2

   => Loading Basis Set <=

    Name: (6-31G(D) AUX)
    Role: JKFIT
    Keyword: DF_BASIS_SCF
    atoms 1, 4, 8, 13               entry C          line   121 file /usr/local/hpc1/software_molmod/psi4/psi4conda/share/psi4/basis/cc-pvdz-jkfit.gbs 
    atoms 2-3, 5-7, 9-10, 12, 14-15 entry H          line    51 file /usr/local/hpc1/software_molmod/psi4/psi4conda/share/psi4/basis/cc-pvdz-jkfit.gbs 
    atoms 11                        entry O          line   221 file /usr/local/hpc1/software_molmod/psi4/psi4conda/share/psi4/basis/cc-pvdz-jkfit.gbs 

  ==> Pre-Iterations <==

   -------------------------------------------------------
    Irrep   Nso     Nmo     Nalpha   Nbeta   Ndocc  Nsocc
   -------------------------------------------------------
     A         95      95       0       0       0       0
   -------------------------------------------------------
    Total      95      95      21      21      21       0
   -------------------------------------------------------

  ==> Integral Setup <==

  ==> DiskDFJK: Density-Fitted J/K Matrices <==

    J tasked:                  Yes
    K tasked:                  Yes
    wK tasked:                  No
    OpenMP threads:             16
    Integrals threads:          16
    Memory (MB):             71525
    Algorithm:                Core
    Integral Cache:           NONE
    Schwarz Cutoff:          1E-12
    Fitting Condition:       1E-12

   => Auxiliary Basis Set <=

  Basis Set: (6-31G(D) AUX)
    Blend: CC-PVDZ-JKFIT
    Number of shells: 210
    Number of basis function: 655
    Number of Cartesian functions: 655
    Spherical Harmonics?: false
    Max angular momentum: 3

  Minimum eigenvalue in the overlap matrix is 3.5860902645E-03.
  Using Symmetric Orthogonalization.

  SCF Guess: Superposition of Atomic Densities via on-the-fly atomic UHF.

  ==> Iterations <==

                           Total Energy        Delta E     RMS |[F,P]|

   @DF-RHF iter   0:  -233.96066365812186   -2.33961e+02   1.73155e-01 
   @DF-RHF iter   1:  -232.02944024315985    1.93122e+00   1.58674e-02 
   @DF-RHF iter   2:  -232.13044405305541   -1.01004e-01   5.02429e-03 DIIS
   @DF-RHF iter   3:  -232.14226638969734   -1.18223e-02   1.67405e-03 DIIS
   @DF-RHF iter   4:  -232.14487406834922   -2.60768e-03   2.89175e-04 DIIS
   @DF-RHF iter   5:  -232.14498720776146   -1.13139e-04   9.78284e-05 DIIS
   @DF-RHF iter   6:  -232.14499890189694   -1.16941e-05   4.17350e-05 DIIS
   @DF-RHF iter   7:  -232.14499999910777   -1.09721e-06   8.72293e-06 DIIS
   @DF-RHF iter   8:  -232.14500016048532   -1.61378e-07   2.00150e-06 DIIS
   @DF-RHF iter   9:  -232.14500016570264   -5.21732e-09   5.53746e-07 DIIS
   @DF-RHF iter  10:  -232.14500016606883   -3.66185e-10   1.50724e-07 DIIS
   @DF-RHF iter  11:  -232.14500016608693   -1.81046e-11   4.45589e-08 DIIS
   @DF-RHF iter  12:  -232.14500016608827   -1.33582e-12   1.11558e-08 DIIS
   @DF-RHF iter  13:  -232.14500016608883   -5.68434e-13   2.72549e-09 DIIS

  ==> Post-Iterations <==

    Orbital Energies [Eh]
    ---------------------

    Doubly Occupied:                                                      

       1A    -20.552165     2A    -11.267444     3A    -11.218594  
       4A    -11.211092     5A    -11.209823     6A     -1.359019  
       7A     -1.070309     8A     -0.974660     9A     -0.855443  
      10A     -0.795993    11A     -0.691771    12A     -0.660085  
      13A     -0.603317    14A     -0.592438    15A     -0.560661  
      16A     -0.522205    17A     -0.510286    18A     -0.474670  
      19A     -0.470170    20A     -0.461455    21A     -0.434466  

    Virtual:                                                              

      22A      0.229216    23A      0.234666    24A      0.275335  
      25A      0.280910    26A      0.297817    27A      0.331096  
      28A      0.341496    29A      0.343579    30A      0.350148  
      31A      0.366291    32A      0.377046    33A      0.429559  
      34A      0.442453    35A      0.482045    36A      0.706088  
      37A      0.744468    38A      0.750820    39A      0.758620  
      40A      0.783001    41A      0.847952    42A      0.898345  
      43A      0.923337    44A      0.968863    45A      0.985149  
      46A      1.027027    47A      1.079749    48A      1.118249  
      49A      1.137549    50A      1.165557    51A      1.169636  
      52A      1.181195    53A      1.199498    54A      1.205477  
      55A      1.221972    56A      1.236736    57A      1.247456  
      58A      1.265774    59A      1.293152    60A      1.367212  
      61A      1.505393    62A      1.595418    63A      1.675002  
      64A      1.676337    65A      1.741910    66A      1.792090  
      67A      1.849021    68A      2.015890    69A      2.033315  
      70A      2.084742    71A      2.140956    72A      2.233966  
      73A      2.236105    74A      2.273851    75A      2.330819  
      76A      2.352103    77A      2.373857    78A      2.442378  
      79A      2.543342    80A      2.613627    81A      2.637785  
      82A      2.682512    83A      2.753672    84A      2.805778  
      85A      2.807868    86A      2.856236    87A      2.925751  
      88A      3.002994    89A      3.149449    90A      3.261109  
      91A      4.204638    92A      4.578545    93A      4.694990  
      94A      4.806166    95A      4.959152  

    Final Occupation by Irrep:
              A 
    DOCC [    21 ]

  Energy converged.

  @DF-RHF Final Energy:  -232.14500016608883

   => Energetics <=

    Nuclear Repulsion Energy =            185.7617201284406576
    One-Electron Energy =                -682.8213070984229489
    Two-Electron Energy =                 264.9145868038934850
    Total Energy =                       -232.1450001660888347



Properties will be evaluated at   0.000000,   0.000000,   0.000000 [a0]

Properties computed using the SCF density matrix

  Nuclear Dipole Moment: [e a0]
     X:    -4.1531      Y:    -1.7488      Z:     2.9568

  Electronic Dipole Moment: [e a0]
     X:     3.9558      Y:     1.2396      Z:    -3.3394

  Dipole Moment: [e a0]
     X:    -0.1974      Y:    -0.5092      Z:    -0.3826     Total:     0.6669

  Dipole Moment: [D]
     X:    -0.5016      Y:    -1.2944      Z:    -0.9726     Total:     1.6950


*** tstop() called on wr86 at Thu Dec  6 16:02:32 2018
Module time:
	user time   =      16.98 seconds =       0.28 minutes
	system time =       0.80 seconds =       0.01 minutes
	total time  =          2 seconds =       0.03 minutes
Total time:
	user time   =      16.98 seconds =       0.28 minutes
	system time =       0.80 seconds =       0.01 minutes
	total time  =          2 seconds =       0.03 minutes

*** tstart() called on wr86
*** at Thu Dec  6 16:02:32 2018


         ------------------------------------------------------------
                                   SCF GRAD                          
                          Rob Parrish, Justin Turney,                
                       Andy Simmonett, and Alex Sokolov              
         ------------------------------------------------------------

  ==> Geometry <==

    Molecular point group: c1
    Full point group: C1

    Geometry (in Angstrom), charge = 0, multiplicity = 1:

       Center              X                  Y                   Z               Mass       
    ------------   -----------------  -----------------  -----------------  -----------------
         C           -1.103426334780    -0.616840226742     0.598721917086    12.000000000000
         H           -0.789220099410    -1.655216941243     0.683175492438     1.007825032070
         H           -1.857023172790    -0.588477595108    -0.185734274002     1.007825032070
         C           -1.732990735624    -0.172121353565     1.918364201957    12.000000000000
         H           -2.089488708919     0.851928635962     1.856085212357     1.007825032070
         H           -1.014214692511    -0.222267842446     2.731072125714     1.007825032070
         H           -2.576964984056    -0.801476446115     2.182885351612     1.007825032070
         C            0.720224271344    -0.189598707880    -1.117850413839    12.000000000000
         H           -0.017355460102    -0.146492515449    -1.918148485694     1.007825032070
         H            1.059171122593    -1.221946655185    -1.042141848205     1.007825032070
         O            1.799279716653     0.665908510747    -1.393616844024    15.994914619560
         H            2.207603725745     0.410835911913    -2.208556657027     1.007825032070
         C            0.090756150539     0.247922348668     0.192839203863    12.000000000000
         H           -0.215406494675     1.286068077887     0.096331312905     1.007825032070
         H            0.853551139348     0.218174841994     0.966179213513     1.007825032070

  Nuclear repulsion =  185.761720128440714

  ==> Basis Set <==

  Basis Set: 6-31G(D)
    Blend: 6-31G(D)
    Number of shells: 50
    Number of basis function: 95
    Number of Cartesian functions: 95
    Spherical Harmonics?: false
    Max angular momentum: 2

  ==> DFJKGrad: Density-Fitted SCF Gradients <==

    Gradient:                    1
    J tasked:                  Yes
    K tasked:                  Yes
    wK tasked:                  No
    OpenMP threads:             16
    Integrals threads:          16
    Memory (MB):             71525
    Schwarz Cutoff:          0E+00
    Fitting Condition:       1E-12

   => Auxiliary Basis Set <=

  Basis Set: (6-31G(D) AUX)
    Blend: CC-PVDZ-JKFIT
    Number of shells: 210
    Number of basis function: 655
    Number of Cartesian functions: 655
    Spherical Harmonics?: false
    Max angular momentum: 3


  -Total Gradient:
     Atom            X                  Y                   Z
    ------   -----------------  -----------------  -----------------
       1        0.000000283830     0.000003479786     0.000003851391
       2        0.000000257554    -0.000000402230     0.000000491074
       3       -0.000000523040     0.000000398616    -0.000000165917
       4        0.000003138555    -0.000000998691    -0.000005041946
       5        0.000000090220     0.000000171227    -0.000000364167
       6        0.000000372836    -0.000000089677    -0.000000141752
       7        0.000001121913    -0.000000026287    -0.000001391948
       8        0.000010496718     0.000013487217     0.000003668574
       9       -0.000004600240    -0.000002865316     0.000000805169
      10       -0.000003788261    -0.000003691334     0.000001465912
      11       -0.000005306740    -0.000006593791    -0.000001580571
      12        0.000004263277     0.000003833746    -0.000000538784
      13       -0.000007717120    -0.000007556293     0.000000243693
      14        0.000000338828     0.000001036910    -0.000001143918
      15        0.000001571664    -0.000000183886    -0.000000156804


*** tstop() called on wr86 at Thu Dec  6 16:02:33 2018
Module time:
	user time   =      16.30 seconds =       0.27 minutes
	system time =       0.56 seconds =       0.01 minutes
	total time  =          1 seconds =       0.02 minutes
Total time:
	user time   =      33.31 seconds =       0.56 minutes
	system time =       1.36 seconds =       0.02 minutes
	total time  =          3 seconds =       0.05 minutes

  Based on options and gradient (rms=1.49E-05), recommend projecting translations and projecting rotations.
hessian() will perform frequency computation by finite difference of analytic gradients.

-------------------------------------------------------------

  Using finite-differences of gradients to determine vibrational frequencies and 
  normal modes.  Resulting frequencies are only valid at stationary points.
	Generating geometries for use with 3-point formula.
	Displacement size will be 5.00e-03.
	Number of atoms is 15.
	Number of irreps is 1.
	Number of SALCS is 39.
	Translations projected? 1. Rotations projected? 1.
	Index of salcs per irrep:
	 1 :  0  1  2  3  4  5  6  7  8  9  10  11  12  13  14  15  16  17  18  19  20  21  22  23  24  25  26  27  28  29  30  31  32  33  34  35  36  37  38 
	Number of SALC's per irrep:
		 Irrep 1: 39
	Number of geometries (including reference) is 79.
	Number of displacements per irrep:
	  Irrep 1: 78

  //>>>>>>>>>>>>>>>>>>>>>>>>>>>>>>>>>>>//
  //    Loading displacement 1 of 79   //
  //<<<<<<<<<<<<<<<<<<<<<<<<<<<<<<<<<<<//
gradient() will perform analytic gradient computation.

*** tstart() called on wr86
*** at Thu Dec  6 16:02:33 2018

   => Loading Basis Set <=

    Name: 6-31G(D)
    Role: ORBITAL
    Keyword: BASIS
    atoms 1, 4, 8, 13               entry C          line   111 file /usr/local/hpc1/software_molmod/psi4/psi4conda/share/psi4/basis/6-31g_d_.gbs 
    atoms 2-3, 5-7, 9-10, 12, 14-15 entry H          line    44 file /usr/local/hpc1/software_molmod/psi4/psi4conda/share/psi4/basis/6-31g_d_.gbs 
    atoms 11                        entry O          line   145 file /usr/local/hpc1/software_molmod/psi4/psi4conda/share/psi4/basis/6-31g_d_.gbs 


         ---------------------------------------------------------
                                   SCF
            by Justin Turney, Rob Parrish, Andy Simmonett
                             and Daniel Smith
                              RHF Reference
                       16 Threads,  95367 MiB Core
         ---------------------------------------------------------

  ==> Geometry <==

    Molecular point group: c1
    Full point group: C1

    Geometry (in Angstrom), charge = 0, multiplicity = 1:

       Center              X                  Y                   Z               Mass       
    ------------   -----------------  -----------------  -----------------  -----------------
         C           -1.104092832997    -0.616904919068     0.598778764581    12.000000000000
         H           -0.788904066042    -1.655242473636     0.683314907922     1.007825032070
         H           -1.856822017527    -0.588683544316    -0.185675178160     1.007825032070
         C           -1.732819648649    -0.172143397186     1.918388679269    12.000000000000
         H           -2.089423236881     0.851864890022     1.856028542751     1.007825032070
         H           -1.014033539285    -0.222149909456     2.731096337193     1.007825032070
         H           -2.576727621160    -0.801563704734     2.182966126050     1.007825032070
         C            0.720378800375    -0.189615624868    -1.117839344602    12.000000000000
         H           -0.017210198794    -0.146650331958    -1.918136464258     1.007825032070
         H            1.059432200499    -1.221922581092    -1.042048850950     1.007825032070
         O            1.799344660828     0.665980052572    -1.393681889469    15.994914619560
         H            2.207689956601     0.410883124167    -2.208603421773     1.007825032070
         C            0.090873640052     0.247947362019     0.192818487846    12.000000000000
         H           -0.215396275590     1.286053777355     0.096227999064     1.007825032070
         H            0.853676360791     0.218341153240     0.966156306199     1.007825032070

  Running in c1 symmetry.

  Rotational constants: A =      0.63493  B =      0.06623  C =      0.06273 [cm^-1]
  Rotational constants: A =  19034.59127  B =   1985.65010  C =   1880.55681 [MHz]
  Nuclear repulsion =  185.756295901420202

  Charge       = 0
  Multiplicity = 1
  Electrons    = 42
  Nalpha       = 21
  Nbeta        = 21

  ==> Algorithm <==

  SCF Algorithm Type is DF.
  DIIS enabled.
  MOM disabled.
  Fractional occupation disabled.
  Guess Type is SAD.
  Energy threshold   = 1.00e-08
  Density threshold  = 1.00e-08
  Integral threshold = 0.00e+00

  ==> Primary Basis <==

  Basis Set: 6-31G(D)
    Blend: 6-31G(D)
    Number of shells: 50
    Number of basis function: 95
    Number of Cartesian functions: 95
    Spherical Harmonics?: false
    Max angular momentum: 2

   => Loading Basis Set <=

    Name: (6-31G(D) AUX)
    Role: JKFIT
    Keyword: DF_BASIS_SCF
    atoms 1, 4, 8, 13               entry C          line   121 file /usr/local/hpc1/software_molmod/psi4/psi4conda/share/psi4/basis/cc-pvdz-jkfit.gbs 
    atoms 2-3, 5-7, 9-10, 12, 14-15 entry H          line    51 file /usr/local/hpc1/software_molmod/psi4/psi4conda/share/psi4/basis/cc-pvdz-jkfit.gbs 
    atoms 11                        entry O          line   221 file /usr/local/hpc1/software_molmod/psi4/psi4conda/share/psi4/basis/cc-pvdz-jkfit.gbs 

  ==> Pre-Iterations <==

   -------------------------------------------------------
    Irrep   Nso     Nmo     Nalpha   Nbeta   Ndocc  Nsocc
   -------------------------------------------------------
     A         95      95       0       0       0       0
   -------------------------------------------------------
    Total      95      95      21      21      21       0
   -------------------------------------------------------

  ==> Integral Setup <==

  ==> DiskDFJK: Density-Fitted J/K Matrices <==

    J tasked:                  Yes
    K tasked:                  Yes
    wK tasked:                  No
    OpenMP threads:             16
    Integrals threads:          16
    Memory (MB):             71525
    Algorithm:                Core
    Integral Cache:           NONE
    Schwarz Cutoff:          1E-12
    Fitting Condition:       1E-12

   => Auxiliary Basis Set <=

  Basis Set: (6-31G(D) AUX)
    Blend: CC-PVDZ-JKFIT
    Number of shells: 210
    Number of basis function: 655
    Number of Cartesian functions: 655
    Spherical Harmonics?: false
    Max angular momentum: 3

  Minimum eigenvalue in the overlap matrix is 3.5879054139E-03.
  Using Symmetric Orthogonalization.

  SCF Guess: Superposition of Atomic Densities via on-the-fly atomic UHF.

  ==> Iterations <==

                           Total Energy        Delta E     RMS |[F,P]|

   @DF-RHF iter   0:  -234.04712421714703   -2.34047e+02   1.75169e-01 
   @DF-RHF iter   1:  -232.01297699668066    2.03415e+00   1.22715e-02 
   @DF-RHF iter   2:  -232.12963577854606   -1.16659e-01   5.62474e-03 DIIS
   @DF-RHF iter   3:  -232.14204652232218   -1.24107e-02   2.08449e-03 DIIS
   @DF-RHF iter   4:  -232.14480984805905   -2.76333e-03   4.02857e-04 DIIS
   @DF-RHF iter   5:  -232.14498253377954   -1.72686e-04   8.96488e-05 DIIS
   @DF-RHF iter   6:  -232.14499752182732   -1.49880e-05   4.24840e-05 DIIS
   @DF-RHF iter   7:  -232.14499916810720   -1.64628e-06   1.39568e-05 DIIS
   @DF-RHF iter   8:  -232.14499934340088   -1.75294e-07   2.35508e-06 DIIS
   @DF-RHF iter   9:  -232.14499935395423   -1.05534e-08   7.55166e-07 DIIS
   @DF-RHF iter  10:  -232.14499935442856   -4.74330e-10   1.79797e-07 DIIS
   @DF-RHF iter  11:  -232.14499935447034   -4.17799e-11   5.83447e-08 DIIS
   @DF-RHF iter  12:  -232.14499935447333   -2.98428e-12   8.59145e-09 DIIS

  ==> Post-Iterations <==

    Orbital Energies [Eh]
    ---------------------

    Doubly Occupied:                                                      

       1A    -20.552162     2A    -11.267438     3A    -11.218581  
       4A    -11.211109     5A    -11.209810     6A     -1.359014  
       7A     -1.070247     8A     -0.974698     9A     -0.855399  
      10A     -0.796014    11A     -0.691764    12A     -0.660068  
      13A     -0.603360    14A     -0.592413    15A     -0.560653  
      16A     -0.522187    17A     -0.510350    18A     -0.474521  
      19A     -0.470247    20A     -0.461478    21A     -0.434459  

    Virtual:                                                              

      22A      0.229215    23A      0.234667    24A      0.275328  
      25A      0.280931    26A      0.297852    27A      0.331096  
      28A      0.341503    29A      0.343592    30A      0.350163  
      31A      0.366310    32A      0.377076    33A      0.429424  
      34A      0.442456    35A      0.481975    36A      0.706111  
      37A      0.744356    38A      0.750774    39A      0.758781  
      40A      0.783014    41A      0.847930    42A      0.898352  
      43A      0.923344    44A      0.968555    45A      0.985230  
      46A      1.027037    47A      1.079739    48A      1.118269  
      49A      1.137521    50A      1.165607    51A      1.169721  
      52A      1.181150    53A      1.199557    54A      1.205469  
      55A      1.221980    56A      1.236876    57A      1.247488  
      58A      1.265778    59A      1.293138    60A      1.367146  
      61A      1.505355    62A      1.595383    63A      1.675030  
      64A      1.676323    65A      1.741863    66A      1.792048  
      67A      1.848877    68A      2.016038    69A      2.033335  
      70A      2.084741    71A      2.140931    72A      2.233875  
      73A      2.236165    74A      2.273684    75A      2.330876  
      76A      2.351919    77A      2.373986    78A      2.442350  
      79A      2.543360    80A      2.614030    81A      2.637841  
      82A      2.682280    83A      2.753819    84A      2.805753  
      85A      2.807659    86A      2.856206    87A      2.925670  
      88A      3.002864    89A      3.149294    90A      3.261049  
      91A      4.204591    92A      4.578504    93A      4.695023  
      94A      4.806169    95A      4.959105  

    Final Occupation by Irrep:
              A 
    DOCC [    21 ]

  Energy converged.

  @DF-RHF Final Energy:  -232.14499935447333

   => Energetics <=

    Nuclear Repulsion Energy =            185.7562959014202022
    One-Electron Energy =                -682.8106506186071556
    Two-Electron Energy =                 264.9093553627135975
    Total Energy =                       -232.1449993544733275



Properties will be evaluated at   0.000000,   0.000000,   0.000000 [a0]

Properties computed using the SCF density matrix

  Nuclear Dipole Moment: [e a0]
     X:    -4.1516      Y:    -1.7490      Z:     2.9570

  Electronic Dipole Moment: [e a0]
     X:     3.9540      Y:     1.2397      Z:    -3.3396

  Dipole Moment: [e a0]
     X:    -0.1976      Y:    -0.5092      Z:    -0.3827     Total:     0.6669

  Dipole Moment: [D]
     X:    -0.5022      Y:    -1.2944      Z:    -0.9726     Total:     1.6952


*** tstop() called on wr86 at Thu Dec  6 16:02:34 2018
Module time:
	user time   =      17.67 seconds =       0.29 minutes
	system time =       0.57 seconds =       0.01 minutes
	total time  =          1 seconds =       0.02 minutes
Total time:
	user time   =      51.17 seconds =       0.85 minutes
	system time =       1.94 seconds =       0.03 minutes
	total time  =          4 seconds =       0.07 minutes

*** tstart() called on wr86
*** at Thu Dec  6 16:02:34 2018


         ------------------------------------------------------------
                                   SCF GRAD                          
                          Rob Parrish, Justin Turney,                
                       Andy Simmonett, and Alex Sokolov              
         ------------------------------------------------------------

  ==> Geometry <==

    Molecular point group: c1
    Full point group: C1

    Geometry (in Angstrom), charge = 0, multiplicity = 1:

       Center              X                  Y                   Z               Mass       
    ------------   -----------------  -----------------  -----------------  -----------------
         C           -1.104092832997    -0.616904919068     0.598778764581    12.000000000000
         H           -0.788904066042    -1.655242473636     0.683314907922     1.007825032070
         H           -1.856822017527    -0.588683544316    -0.185675178160     1.007825032070
         C           -1.732819648649    -0.172143397186     1.918388679269    12.000000000000
         H           -2.089423236881     0.851864890022     1.856028542751     1.007825032070
         H           -1.014033539285    -0.222149909456     2.731096337193     1.007825032070
         H           -2.576727621160    -0.801563704734     2.182966126050     1.007825032070
         C            0.720378800375    -0.189615624868    -1.117839344602    12.000000000000
         H           -0.017210198794    -0.146650331958    -1.918136464258     1.007825032070
         H            1.059432200499    -1.221922581092    -1.042048850950     1.007825032070
         O            1.799344660828     0.665980052572    -1.393681889469    15.994914619560
         H            2.207689956601     0.410883124167    -2.208603421773     1.007825032070
         C            0.090873640052     0.247947362019     0.192818487846    12.000000000000
         H           -0.215396275590     1.286053777355     0.096227999064     1.007825032070
         H            0.853676360791     0.218341153240     0.966156306199     1.007825032070

  Nuclear repulsion =  185.756295901420202

  ==> Basis Set <==

  Basis Set: 6-31G(D)
    Blend: 6-31G(D)
    Number of shells: 50
    Number of basis function: 95
    Number of Cartesian functions: 95
    Spherical Harmonics?: false
    Max angular momentum: 2

  ==> DFJKGrad: Density-Fitted SCF Gradients <==

    Gradient:                    1
    J tasked:                  Yes
    K tasked:                  Yes
    wK tasked:                  No
    OpenMP threads:             16
    Integrals threads:          16
    Memory (MB):             71525
    Schwarz Cutoff:          0E+00
    Fitting Condition:       1E-12

   => Auxiliary Basis Set <=

  Basis Set: (6-31G(D) AUX)
    Blend: CC-PVDZ-JKFIT
    Number of shells: 210
    Number of basis function: 655
    Number of Cartesian functions: 655
    Spherical Harmonics?: false
    Max angular momentum: 3


  -Total Gradient:
     Atom            X                  Y                   Z
    ------   -----------------  -----------------  -----------------
       1       -0.000982171297     0.000057488598    -0.000084806911
       2        0.000141686049    -0.000126471356     0.000015428793
       3        0.000317504056    -0.000013624615     0.000226109410
       4        0.000196689873    -0.000028607058    -0.000081241305
       5        0.000008572081    -0.000004795647    -0.000019861987
       6       -0.000020260182     0.000014666095     0.000039241671
       7        0.000018869174    -0.000019474646    -0.000045274144
       8        0.000032558439     0.000026402101    -0.000006352719
       9       -0.000006019025    -0.000002730962     0.000004166821
      10       -0.000004598991    -0.000003218195     0.000003184754
      11       -0.000004935257    -0.000008158713    -0.000004264925
      12        0.000003985980     0.000005055797    -0.000000473026
      13        0.000277737666     0.000086291832    -0.000035813917
      14       -0.000016149938    -0.000010191983     0.000004473147
      15        0.000036531371     0.000027368752    -0.000014515658


*** tstop() called on wr86 at Thu Dec  6 16:02:36 2018
Module time:
	user time   =      15.84 seconds =       0.26 minutes
	system time =       0.52 seconds =       0.01 minutes
	total time  =          2 seconds =       0.03 minutes
Total time:
	user time   =      67.03 seconds =       1.12 minutes
	system time =       2.46 seconds =       0.04 minutes
	total time  =          6 seconds =       0.10 minutes

  //>>>>>>>>>>>>>>>>>>>>>>>>>>>>>>>>>>>//
  //    Loading displacement 2 of 79   //
  //<<<<<<<<<<<<<<<<<<<<<<<<<<<<<<<<<<<//
gradient() will perform analytic gradient computation.

*** tstart() called on wr86
*** at Thu Dec  6 16:02:36 2018

   => Loading Basis Set <=

    Name: 6-31G(D)
    Role: ORBITAL
    Keyword: BASIS
    atoms 1, 4, 8, 13               entry C          line   111 file /usr/local/hpc1/software_molmod/psi4/psi4conda/share/psi4/basis/6-31g_d_.gbs 
    atoms 2-3, 5-7, 9-10, 12, 14-15 entry H          line    44 file /usr/local/hpc1/software_molmod/psi4/psi4conda/share/psi4/basis/6-31g_d_.gbs 
    atoms 11                        entry O          line   145 file /usr/local/hpc1/software_molmod/psi4/psi4conda/share/psi4/basis/6-31g_d_.gbs 


         ---------------------------------------------------------
                                   SCF
            by Justin Turney, Rob Parrish, Andy Simmonett
                             and Daniel Smith
                              RHF Reference
                       16 Threads,  95367 MiB Core
         ---------------------------------------------------------

  ==> Geometry <==

    Molecular point group: c1
    Full point group: C1

    Geometry (in Angstrom), charge = 0, multiplicity = 1:

       Center              X                  Y                   Z               Mass       
    ------------   -----------------  -----------------  -----------------  -----------------
         C           -1.102759836564    -0.616775534417     0.598665069591    12.000000000000
         H           -0.789536132778    -1.655191408850     0.683036076954     1.007825032070
         H           -1.857224328053    -0.588271645900    -0.185793369844     1.007825032070
         C           -1.733161822599    -0.172099309944     1.918339724645    12.000000000000
         H           -2.089554180957     0.851992381902     1.856141881963     1.007825032070
         H           -1.014395845737    -0.222385775436     2.731047914235     1.007825032070
         H           -2.577202346953    -0.801389187496     2.182804577174     1.007825032070
         C            0.720069742312    -0.189581790892    -1.117861483076    12.000000000000
         H           -0.017500721410    -0.146334698940    -1.918160507130     1.007825032070
         H            1.058910044687    -1.221970729278    -1.042234845459     1.007825032070
         O            1.799214772478     0.665836968922    -1.393551798579    15.994914619560
         H            2.207517494889     0.410788699659    -2.208509892281     1.007825032070
         C            0.090638661026     0.247897335317     0.192859919880    12.000000000000
         H           -0.215416713760     1.286082378419     0.096434626746     1.007825032070
         H            0.853425917905     0.218008530748     0.966202120827     1.007825032070

  Running in c1 symmetry.

  Rotational constants: A =      0.63510  B =      0.06624  C =      0.06274 [cm^-1]
  Rotational constants: A =  19039.86592  B =   1985.95445  C =   1880.88128 [MHz]
  Nuclear repulsion =  185.767145991813919

  Charge       = 0
  Multiplicity = 1
  Electrons    = 42
  Nalpha       = 21
  Nbeta        = 21

  ==> Algorithm <==

  SCF Algorithm Type is DF.
  DIIS enabled.
  MOM disabled.
  Fractional occupation disabled.
  Guess Type is SAD.
  Energy threshold   = 1.00e-08
  Density threshold  = 1.00e-08
  Integral threshold = 0.00e+00

  ==> Primary Basis <==

  Basis Set: 6-31G(D)
    Blend: 6-31G(D)
    Number of shells: 50
    Number of basis function: 95
    Number of Cartesian functions: 95
    Spherical Harmonics?: false
    Max angular momentum: 2

   => Loading Basis Set <=

    Name: (6-31G(D) AUX)
    Role: JKFIT
    Keyword: DF_BASIS_SCF
    atoms 1, 4, 8, 13               entry C          line   121 file /usr/local/hpc1/software_molmod/psi4/psi4conda/share/psi4/basis/cc-pvdz-jkfit.gbs 
    atoms 2-3, 5-7, 9-10, 12, 14-15 entry H          line    51 file /usr/local/hpc1/software_molmod/psi4/psi4conda/share/psi4/basis/cc-pvdz-jkfit.gbs 
    atoms 11                        entry O          line   221 file /usr/local/hpc1/software_molmod/psi4/psi4conda/share/psi4/basis/cc-pvdz-jkfit.gbs 

  ==> Pre-Iterations <==

   -------------------------------------------------------
    Irrep   Nso     Nmo     Nalpha   Nbeta   Ndocc  Nsocc
   -------------------------------------------------------
     A         95      95       0       0       0       0
   -------------------------------------------------------
    Total      95      95      21      21      21       0
   -------------------------------------------------------

  ==> Integral Setup <==

  ==> DiskDFJK: Density-Fitted J/K Matrices <==

    J tasked:                  Yes
    K tasked:                  Yes
    wK tasked:                  No
    OpenMP threads:             16
    Integrals threads:          16
    Memory (MB):             71525
    Algorithm:                Core
    Integral Cache:           NONE
    Schwarz Cutoff:          1E-12
    Fitting Condition:       1E-12

   => Auxiliary Basis Set <=

  Basis Set: (6-31G(D) AUX)
    Blend: CC-PVDZ-JKFIT
    Number of shells: 210
    Number of basis function: 655
    Number of Cartesian functions: 655
    Spherical Harmonics?: false
    Max angular momentum: 3

  Minimum eigenvalue in the overlap matrix is 3.5842711011E-03.
  Using Symmetric Orthogonalization.

  SCF Guess: Superposition of Atomic Densities via on-the-fly atomic UHF.

  ==> Iterations <==

                           Total Energy        Delta E     RMS |[F,P]|

   @DF-RHF iter   0:  -233.97752192122738   -2.33978e+02   1.73098e-01 
   @DF-RHF iter   1:  -232.01983630022235    1.95769e+00   1.26892e-02 
   @DF-RHF iter   2:  -232.13048793602067   -1.10652e-01   5.91727e-03 DIIS
   @DF-RHF iter   3:  -232.14253942617452   -1.20515e-02   2.43554e-03 DIIS
   @DF-RHF iter   4:  -232.14485724224309   -2.31782e-03   5.34678e-04 DIIS
   @DF-RHF iter   5:  -232.14498398230540   -1.26740e-04   1.06207e-04 DIIS
   @DF-RHF iter   6:  -232.14499775961815   -1.37773e-05   3.90695e-05 DIIS
   @DF-RHF iter   7:  -232.14499923471402   -1.47510e-06   1.03785e-05 DIIS
   @DF-RHF iter   8:  -232.14499934454216   -1.09828e-07   2.42307e-06 DIIS
   @DF-RHF iter   9:  -232.14499935278428   -8.24213e-09   1.00325e-06 DIIS
   @DF-RHF iter  10:  -232.14499935347243   -6.88146e-10   1.93182e-07 DIIS
   @DF-RHF iter  11:  -232.14499935349988   -2.74554e-11   2.95625e-08 DIIS
   @DF-RHF iter  12:  -232.14499935350125   -1.36424e-12   1.11561e-08 DIIS
   @DF-RHF iter  13:  -232.14499935350136   -1.13687e-13   4.04621e-09 DIIS

  ==> Post-Iterations <==

    Orbital Energies [Eh]
    ---------------------

    Doubly Occupied:                                                      

       1A    -20.552169     2A    -11.267449     3A    -11.218608  
       4A    -11.211075     5A    -11.209837     6A     -1.359024  
       7A     -1.070372     8A     -0.974622     9A     -0.855488  
      10A     -0.795973    11A     -0.691778    12A     -0.660102  
      13A     -0.603273    14A     -0.592462    15A     -0.560670  
      16A     -0.522224    17A     -0.510223    18A     -0.474828  
      19A     -0.470087    20A     -0.461429    21A     -0.434473  

    Virtual:                                                              

      22A      0.229218    23A      0.234666    24A      0.275343  
      25A      0.280889    26A      0.297781    27A      0.331095  
      28A      0.341488    29A      0.343565    30A      0.350132  
      31A      0.366272    32A      0.377016    33A      0.429691  
      34A      0.442453    35A      0.482116    36A      0.706065  
      37A      0.744579    38A      0.750866    39A      0.758461  
      40A      0.782988    41A      0.847973    42A      0.898337  
      43A      0.923330    44A      0.969172    45A      0.985069  
      46A      1.027016    47A      1.079759    48A      1.118229  
      49A      1.137576    50A      1.165502    51A      1.169555  
      52A      1.181241    53A      1.199440    54A      1.205486  
      55A      1.221963    56A      1.236595    57A      1.247427  
      58A      1.265771    59A      1.293166    60A      1.367278  
      61A      1.505431    62A      1.595452    63A      1.674974  
      64A      1.676352    65A      1.741957    66A      1.792131  
      67A      1.849165    68A      2.015742    69A      2.033296  
      70A      2.084742    71A      2.140981    72A      2.234049  
      73A      2.236044    74A      2.274024    75A      2.330761  
      76A      2.352287    77A      2.373729    78A      2.442407  
      79A      2.543323    80A      2.613225    81A      2.637730  
      82A      2.682743    83A      2.753525    84A      2.805802  
      85A      2.808079    86A      2.856267    87A      2.925832  
      88A      3.003124    89A      3.149605    90A      3.261170  
      91A      4.204685    92A      4.578586    93A      4.694958  
      94A      4.806163    95A      4.959199  

    Final Occupation by Irrep:
              A 
    DOCC [    21 ]

  Energy converged.

  @DF-RHF Final Energy:  -232.14499935350136

   => Energetics <=

    Nuclear Repulsion Energy =            185.7671459918139192
    One-Electron Energy =                -682.8319620227549649
    Two-Electron Energy =                 264.9198166774397123
    Total Energy =                       -232.1449993535013618



Properties will be evaluated at   0.000000,   0.000000,   0.000000 [a0]

Properties computed using the SCF density matrix

  Nuclear Dipole Moment: [e a0]
     X:    -4.1546      Y:    -1.7486      Z:     2.9566

  Electronic Dipole Moment: [e a0]
     X:     3.9575      Y:     1.2394      Z:    -3.3393

  Dipole Moment: [e a0]
     X:    -0.1971      Y:    -0.5092      Z:    -0.3826     Total:     0.6668

  Dipole Moment: [D]
     X:    -0.5011      Y:    -1.2943      Z:    -0.9726     Total:     1.6948


*** tstop() called on wr86 at Thu Dec  6 16:02:37 2018
Module time:
	user time   =      18.26 seconds =       0.30 minutes
	system time =       0.50 seconds =       0.01 minutes
	total time  =          1 seconds =       0.02 minutes
Total time:
	user time   =      85.42 seconds =       1.42 minutes
	system time =       2.97 seconds =       0.05 minutes
	total time  =          7 seconds =       0.12 minutes

*** tstart() called on wr86
*** at Thu Dec  6 16:02:37 2018


         ------------------------------------------------------------
                                   SCF GRAD                          
                          Rob Parrish, Justin Turney,                
                       Andy Simmonett, and Alex Sokolov              
         ------------------------------------------------------------

  ==> Geometry <==

    Molecular point group: c1
    Full point group: C1

    Geometry (in Angstrom), charge = 0, multiplicity = 1:

       Center              X                  Y                   Z               Mass       
    ------------   -----------------  -----------------  -----------------  -----------------
         C           -1.102759836564    -0.616775534417     0.598665069591    12.000000000000
         H           -0.789536132778    -1.655191408850     0.683036076954     1.007825032070
         H           -1.857224328053    -0.588271645900    -0.185793369844     1.007825032070
         C           -1.733161822599    -0.172099309944     1.918339724645    12.000000000000
         H           -2.089554180957     0.851992381902     1.856141881963     1.007825032070
         H           -1.014395845737    -0.222385775436     2.731047914235     1.007825032070
         H           -2.577202346953    -0.801389187496     2.182804577174     1.007825032070
         C            0.720069742312    -0.189581790892    -1.117861483076    12.000000000000
         H           -0.017500721410    -0.146334698940    -1.918160507130     1.007825032070
         H            1.058910044687    -1.221970729278    -1.042234845459     1.007825032070
         O            1.799214772478     0.665836968922    -1.393551798579    15.994914619560
         H            2.207517494889     0.410788699659    -2.208509892281     1.007825032070
         C            0.090638661026     0.247897335317     0.192859919880    12.000000000000
         H           -0.215416713760     1.286082378419     0.096434626746     1.007825032070
         H            0.853425917905     0.218008530748     0.966202120827     1.007825032070

  Nuclear repulsion =  185.767145991813919

  ==> Basis Set <==

  Basis Set: 6-31G(D)
    Blend: 6-31G(D)
    Number of shells: 50
    Number of basis function: 95
    Number of Cartesian functions: 95
    Spherical Harmonics?: false
    Max angular momentum: 2

  ==> DFJKGrad: Density-Fitted SCF Gradients <==

    Gradient:                    1
    J tasked:                  Yes
    K tasked:                  Yes
    wK tasked:                  No
    OpenMP threads:             16
    Integrals threads:          16
    Memory (MB):             71525
    Schwarz Cutoff:          0E+00
    Fitting Condition:       1E-12

   => Auxiliary Basis Set <=

  Basis Set: (6-31G(D) AUX)
    Blend: CC-PVDZ-JKFIT
    Number of shells: 210
    Number of basis function: 655
    Number of Cartesian functions: 655
    Spherical Harmonics?: false
    Max angular momentum: 3


  -Total Gradient:
     Atom            X                  Y                   Z
    ------   -----------------  -----------------  -----------------
       1        0.000982709134    -0.000049560282     0.000091065350
       2       -0.000140974228     0.000125558300    -0.000014369838
       3       -0.000317796922     0.000014431531    -0.000225224385
       4       -0.000190293613     0.000026482194     0.000070968701
       5       -0.000008382760     0.000005119539     0.000019102504
       6        0.000020985131    -0.000014825928    -0.000039500231
       7       -0.000016602681     0.000019420369     0.000042442573
       8       -0.000011618504     0.000000573592     0.000013723524
       9       -0.000003181691    -0.000003011070    -0.000002562276
      10       -0.000002973136    -0.000004172227    -0.000000256551
      11       -0.000005657420    -0.000005054035     0.000001106630
      12        0.000004519160     0.000002627280    -0.000000607232
      13       -0.000294110254    -0.000102101246     0.000036693351
      14        0.000016843556     0.000012279582    -0.000006771084
      15       -0.000033465774    -0.000027767599     0.000014188966


*** tstop() called on wr86 at Thu Dec  6 16:02:38 2018
Module time:
	user time   =      15.96 seconds =       0.27 minutes
	system time =       0.57 seconds =       0.01 minutes
	total time  =          1 seconds =       0.02 minutes
Total time:
	user time   =     101.40 seconds =       1.69 minutes
	system time =       3.54 seconds =       0.06 minutes
	total time  =          8 seconds =       0.13 minutes

  //>>>>>>>>>>>>>>>>>>>>>>>>>>>>>>>>>>>//
  //    Loading displacement 3 of 79   //
  //<<<<<<<<<<<<<<<<<<<<<<<<<<<<<<<<<<<//
gradient() will perform analytic gradient computation.

*** tstart() called on wr86
*** at Thu Dec  6 16:02:38 2018

   => Loading Basis Set <=

    Name: 6-31G(D)
    Role: ORBITAL
    Keyword: BASIS
    atoms 1, 4, 8, 13               entry C          line   111 file /usr/local/hpc1/software_molmod/psi4/psi4conda/share/psi4/basis/6-31g_d_.gbs 
    atoms 2-3, 5-7, 9-10, 12, 14-15 entry H          line    44 file /usr/local/hpc1/software_molmod/psi4/psi4conda/share/psi4/basis/6-31g_d_.gbs 
    atoms 11                        entry O          line   145 file /usr/local/hpc1/software_molmod/psi4/psi4conda/share/psi4/basis/6-31g_d_.gbs 


         ---------------------------------------------------------
                                   SCF
            by Justin Turney, Rob Parrish, Andy Simmonett
                             and Daniel Smith
                              RHF Reference
                       16 Threads,  95367 MiB Core
         ---------------------------------------------------------

  ==> Geometry <==

    Molecular point group: c1
    Full point group: C1

    Geometry (in Angstrom), charge = 0, multiplicity = 1:

       Center              X                  Y                   Z               Mass       
    ------------   -----------------  -----------------  -----------------  -----------------
         C           -1.103426334780    -0.617486970890     0.598699168225    12.000000000000
         H           -0.789447109888    -1.655010002267     0.683076952509     1.007825032070
         H           -1.857120423387    -0.588066867409    -0.185742089379     1.007825032070
         C           -1.732995155398    -0.171870042860     1.918382459612    12.000000000000
         H           -2.089355234836     0.852232545743     1.856179020425     1.007825032070
         H           -1.014211885356    -0.222169147056     2.731074574903     1.007825032070
         H           -2.577050243562    -0.801128528900     2.182875532674     1.007825032070
         C            0.720165057020    -0.189474561440    -1.117875697348    12.000000000000
         H           -0.017422642495    -0.146214042891    -1.918158113164     1.007825032070
         H            1.058973120207    -1.221873636100    -1.042242941407     1.007825032070
         O            1.799331837976     0.665904910920    -1.393602784519    15.994914619560
         H            2.207607161713     0.410832125035    -2.208566932679     1.007825032070
         C            0.090778940353     0.248043097924     0.192854437445    12.000000000000
         H           -0.215244489126     1.286236914978     0.096422183022     1.007825032070
         H            0.853583244624     0.218139670108     0.966179260950     1.007825032070

  Running in c1 symmetry.

  Rotational constants: A =      0.63481  B =      0.06624  C =      0.06273 [cm^-1]
  Rotational constants: A =  19031.20463  B =   1985.78172  C =   1880.64180 [MHz]
  Nuclear repulsion =  185.755938730952693

  Charge       = 0
  Multiplicity = 1
  Electrons    = 42
  Nalpha       = 21
  Nbeta        = 21

  ==> Algorithm <==

  SCF Algorithm Type is DF.
  DIIS enabled.
  MOM disabled.
  Fractional occupation disabled.
  Guess Type is SAD.
  Energy threshold   = 1.00e-08
  Density threshold  = 1.00e-08
  Integral threshold = 0.00e+00

  ==> Primary Basis <==

  Basis Set: 6-31G(D)
    Blend: 6-31G(D)
    Number of shells: 50
    Number of basis function: 95
    Number of Cartesian functions: 95
    Spherical Harmonics?: false
    Max angular momentum: 2

   => Loading Basis Set <=

    Name: (6-31G(D) AUX)
    Role: JKFIT
    Keyword: DF_BASIS_SCF
    atoms 1, 4, 8, 13               entry C          line   121 file /usr/local/hpc1/software_molmod/psi4/psi4conda/share/psi4/basis/cc-pvdz-jkfit.gbs 
    atoms 2-3, 5-7, 9-10, 12, 14-15 entry H          line    51 file /usr/local/hpc1/software_molmod/psi4/psi4conda/share/psi4/basis/cc-pvdz-jkfit.gbs 
    atoms 11                        entry O          line   221 file /usr/local/hpc1/software_molmod/psi4/psi4conda/share/psi4/basis/cc-pvdz-jkfit.gbs 

  ==> Pre-Iterations <==

   -------------------------------------------------------
    Irrep   Nso     Nmo     Nalpha   Nbeta   Ndocc  Nsocc
   -------------------------------------------------------
     A         95      95       0       0       0       0
   -------------------------------------------------------
    Total      95      95      21      21      21       0
   -------------------------------------------------------

  ==> Integral Setup <==

  ==> DiskDFJK: Density-Fitted J/K Matrices <==

    J tasked:                  Yes
    K tasked:                  Yes
    wK tasked:                  No
    OpenMP threads:             16
    Integrals threads:          16
    Memory (MB):             71525
    Algorithm:                Core
    Integral Cache:           NONE
    Schwarz Cutoff:          1E-12
    Fitting Condition:       1E-12

   => Auxiliary Basis Set <=

  Basis Set: (6-31G(D) AUX)
    Blend: CC-PVDZ-JKFIT
    Number of shells: 210
    Number of basis function: 655
    Number of Cartesian functions: 655
    Spherical Harmonics?: false
    Max angular momentum: 3

  Minimum eigenvalue in the overlap matrix is 3.5873257570E-03.
  Using Symmetric Orthogonalization.

  SCF Guess: Superposition of Atomic Densities via on-the-fly atomic UHF.

  ==> Iterations <==

                           Total Energy        Delta E     RMS |[F,P]|

   @DF-RHF iter   0:  -233.84389907891543   -2.33844e+02   1.31678e-01 
   @DF-RHF iter   1:  -232.01338621555979    1.83051e+00   1.72930e-02 
   @DF-RHF iter   2:  -232.13022513435561   -1.16839e-01   5.68861e-03 DIIS
   @DF-RHF iter   3:  -232.14258399781409   -1.23589e-02   1.58754e-03 DIIS
   @DF-RHF iter   4:  -232.14484821391619   -2.26422e-03   5.21703e-04 DIIS
   @DF-RHF iter   5:  -232.14498008111624   -1.31867e-04   1.32313e-04 DIIS
   @DF-RHF iter   6:  -232.14499686679545   -1.67857e-05   5.71586e-05 DIIS
   @DF-RHF iter   7:  -232.14499905567996   -2.18888e-06   9.01354e-06 DIIS
   @DF-RHF iter   8:  -232.14499922624509   -1.70565e-07   2.89232e-06 DIIS
   @DF-RHF iter   9:  -232.14499923664877   -1.04037e-08   1.03374e-06 DIIS
   @DF-RHF iter  10:  -232.14499923729841   -6.49635e-10   1.76339e-07 DIIS
   @DF-RHF iter  11:  -232.14499923731881   -2.04068e-11   3.33148e-08 DIIS
   @DF-RHF iter  12:  -232.14499923731961   -7.95808e-13   9.91154e-09 DIIS

  ==> Post-Iterations <==

    Orbital Energies [Eh]
    ---------------------

    Doubly Occupied:                                                      

       1A    -20.552153     2A    -11.267427     3A    -11.218561  
       4A    -11.211101     5A    -11.209826     6A     -1.359007  
       7A     -1.070232     8A     -0.974621     9A     -0.855415  
      10A     -0.796054    11A     -0.691764    12A     -0.660086  
      13A     -0.603353    14A     -0.592363    15A     -0.560642  
      16A     -0.522192    17A     -0.510230    18A     -0.474649  
      19A     -0.470343    20A     -0.461375    21A     -0.434456  

    Virtual:                                                              

      22A      0.229218    23A      0.234677    24A      0.275332  
      25A      0.280958    26A      0.297871    27A      0.331087  
      28A      0.341495    29A      0.343595    30A      0.350218  
      31A      0.366304    32A      0.377010    33A      0.429433  
      34A      0.442434    35A      0.481984    36A      0.706100  
      37A      0.744489    38A      0.750723    39A      0.758695  
      40A      0.782999    41A      0.847959    42A      0.898349  
      43A      0.923258    44A      0.968594    45A      0.985045  
      46A      1.027022    47A      1.079815    48A      1.118325  
      49A      1.137546    50A      1.165604    51A      1.169853  
      52A      1.181203    53A      1.199557    54A      1.205508  
      55A      1.222022    56A      1.236917    57A      1.247556  
      58A      1.265813    59A      1.293151    60A      1.367282  
      61A      1.505299    62A      1.595397    63A      1.675106  
      64A      1.676323    65A      1.741785    66A      1.792009  
      67A      1.849018    68A      2.016008    69A      2.033326  
      70A      2.084738    71A      2.141025    72A      2.233489  
      73A      2.236257    74A      2.273840    75A      2.330694  
      76A      2.351802    77A      2.374003    78A      2.442348  
      79A      2.543308    80A      2.613913    81A      2.637838  
      82A      2.682448    83A      2.753689    84A      2.805724  
      85A      2.807800    86A      2.856201    87A      2.925499  
      88A      3.002639    89A      3.149330    90A      3.261080  
      91A      4.204635    92A      4.578474    93A      4.694980  
      94A      4.806176    95A      4.959137  

    Final Occupation by Irrep:
              A 
    DOCC [    21 ]

  Energy converged.

  @DF-RHF Final Energy:  -232.14499923731961

   => Energetics <=

    Nuclear Repulsion Energy =            185.7559387309526926
    One-Electron Energy =                -682.8101707890145917
    Two-Electron Energy =                 264.9092328207422611
    Total Energy =                       -232.1449992373196096



Properties will be evaluated at   0.000000,   0.000000,   0.000000 [a0]

Properties computed using the SCF density matrix

  Nuclear Dipole Moment: [e a0]
     X:    -4.1534      Y:    -1.7471      Z:     2.9567

  Electronic Dipole Moment: [e a0]
     X:     3.9560      Y:     1.2376      Z:    -3.3394

  Dipole Moment: [e a0]
     X:    -0.1974      Y:    -0.5095      Z:    -0.3826     Total:     0.6670

  Dipole Moment: [D]
     X:    -0.5017      Y:    -1.2950      Z:    -0.9725     Total:     1.6954


*** tstop() called on wr86 at Thu Dec  6 16:02:40 2018
Module time:
	user time   =      16.93 seconds =       0.28 minutes
	system time =       0.50 seconds =       0.01 minutes
	total time  =          2 seconds =       0.03 minutes
Total time:
	user time   =     118.45 seconds =       1.97 minutes
	system time =       4.04 seconds =       0.07 minutes
	total time  =         10 seconds =       0.17 minutes

*** tstart() called on wr86
*** at Thu Dec  6 16:02:40 2018


         ------------------------------------------------------------
                                   SCF GRAD                          
                          Rob Parrish, Justin Turney,                
                       Andy Simmonett, and Alex Sokolov              
         ------------------------------------------------------------

  ==> Geometry <==

    Molecular point group: c1
    Full point group: C1

    Geometry (in Angstrom), charge = 0, multiplicity = 1:

       Center              X                  Y                   Z               Mass       
    ------------   -----------------  -----------------  -----------------  -----------------
         C           -1.103426334780    -0.617486970890     0.598699168225    12.000000000000
         H           -0.789447109888    -1.655010002267     0.683076952509     1.007825032070
         H           -1.857120423387    -0.588066867409    -0.185742089379     1.007825032070
         C           -1.732995155398    -0.171870042860     1.918382459612    12.000000000000
         H           -2.089355234836     0.852232545743     1.856179020425     1.007825032070
         H           -1.014211885356    -0.222169147056     2.731074574903     1.007825032070
         H           -2.577050243562    -0.801128528900     2.182875532674     1.007825032070
         C            0.720165057020    -0.189474561440    -1.117875697348    12.000000000000
         H           -0.017422642495    -0.146214042891    -1.918158113164     1.007825032070
         H            1.058973120207    -1.221873636100    -1.042242941407     1.007825032070
         O            1.799331837976     0.665904910920    -1.393602784519    15.994914619560
         H            2.207607161713     0.410832125035    -2.208566932679     1.007825032070
         C            0.090778940353     0.248043097924     0.192854437445    12.000000000000
         H           -0.215244489126     1.286236914978     0.096422183022     1.007825032070
         H            0.853583244624     0.218139670108     0.966179260950     1.007825032070

  Nuclear repulsion =  185.755938730952693

  ==> Basis Set <==

  Basis Set: 6-31G(D)
    Blend: 6-31G(D)
    Number of shells: 50
    Number of basis function: 95
    Number of Cartesian functions: 95
    Spherical Harmonics?: false
    Max angular momentum: 2

  ==> DFJKGrad: Density-Fitted SCF Gradients <==

    Gradient:                    1
    J tasked:                  Yes
    K tasked:                  Yes
    wK tasked:                  No
    OpenMP threads:             16
    Integrals threads:          16
    Memory (MB):             71525
    Schwarz Cutoff:          0E+00
    Fitting Condition:       1E-12

   => Auxiliary Basis Set <=

  Basis Set: (6-31G(D) AUX)
    Blend: CC-PVDZ-JKFIT
    Number of shells: 210
    Number of basis function: 655
    Number of Cartesian functions: 655
    Spherical Harmonics?: false
    Max angular momentum: 3


  -Total Gradient:
     Atom            X                  Y                   Z
    ------   -----------------  -----------------  -----------------
       1        0.000154600537    -0.001078652901     0.000026338957
       2       -0.000146008408     0.000537862982    -0.000041332409
       3       -0.000044694933     0.000109992606    -0.000035213819
       4       -0.000042860228     0.000187261845     0.000061652406
       5       -0.000025679633     0.000017133692     0.000059536458
       6        0.000005004068    -0.000002920377    -0.000008706139
       7        0.000014681236    -0.000012282202    -0.000035135920
       8       -0.000004767300    -0.000004900920    -0.000001565094
       9       -0.000004515960    -0.000002835075     0.000001097016
      10       -0.000005604701    -0.000002824024     0.000002617865
      11       -0.000011193880    -0.000005682459     0.000007134856
      12        0.000002826623     0.000001793624     0.000000727555
      13        0.000059069723     0.000224884252    -0.000021908087
      14        0.000054855973     0.000036270539    -0.000017904958
      15       -0.000005713118    -0.000005101582     0.000002661313


*** tstop() called on wr86 at Thu Dec  6 16:02:41 2018
Module time:
	user time   =      14.84 seconds =       0.25 minutes
	system time =       0.62 seconds =       0.01 minutes
	total time  =          1 seconds =       0.02 minutes
Total time:
	user time   =     133.31 seconds =       2.22 minutes
	system time =       4.66 seconds =       0.08 minutes
	total time  =         11 seconds =       0.18 minutes

  //>>>>>>>>>>>>>>>>>>>>>>>>>>>>>>>>>>>//
  //    Loading displacement 4 of 79   //
  //<<<<<<<<<<<<<<<<<<<<<<<<<<<<<<<<<<<//
gradient() will perform analytic gradient computation.

*** tstart() called on wr86
*** at Thu Dec  6 16:02:41 2018

   => Loading Basis Set <=

    Name: 6-31G(D)
    Role: ORBITAL
    Keyword: BASIS
    atoms 1, 4, 8, 13               entry C          line   111 file /usr/local/hpc1/software_molmod/psi4/psi4conda/share/psi4/basis/6-31g_d_.gbs 
    atoms 2-3, 5-7, 9-10, 12, 14-15 entry H          line    44 file /usr/local/hpc1/software_molmod/psi4/psi4conda/share/psi4/basis/6-31g_d_.gbs 
    atoms 11                        entry O          line   145 file /usr/local/hpc1/software_molmod/psi4/psi4conda/share/psi4/basis/6-31g_d_.gbs 


         ---------------------------------------------------------
                                   SCF
            by Justin Turney, Rob Parrish, Andy Simmonett
                             and Daniel Smith
                              RHF Reference
                       16 Threads,  95367 MiB Core
         ---------------------------------------------------------

  ==> Geometry <==

    Molecular point group: c1
    Full point group: C1

    Geometry (in Angstrom), charge = 0, multiplicity = 1:

       Center              X                  Y                   Z               Mass       
    ------------   -----------------  -----------------  -----------------  -----------------
         C           -1.103426334780    -0.616193482595     0.598744665947    12.000000000000
         H           -0.788993088932    -1.655423880219     0.683274032367     1.007825032070
         H           -1.856925922194    -0.588888322807    -0.185726458625     1.007825032070
         C           -1.732986315851    -0.172372664270     1.918345944302    12.000000000000
         H           -2.089622183002     0.851624726181     1.855991404289     1.007825032070
         H           -1.014217499666    -0.222366537836     2.731069676525     1.007825032070
         H           -2.576879724550    -0.801824363330     2.182895170550     1.007825032070
         C            0.720283485668    -0.189722854320    -1.117825130330    12.000000000000
         H           -0.017288277709    -0.146770988007    -1.918138858224     1.007825032070
         H            1.059369124979    -1.222019674270    -1.042040755003     1.007825032070
         O            1.799227595330     0.665912110574    -1.393630903529    15.994914619560
         H            2.207600289777     0.410839698791    -2.208546381375     1.007825032070
         C            0.090733360725     0.247801599412     0.192823970282    12.000000000000
         H           -0.215568500224     1.285899240796     0.096240442788     1.007825032070
         H            0.853519034072     0.218210013879     0.966179166076     1.007825032070

  Running in c1 symmetry.

  Rotational constants: A =      0.63521  B =      0.06624  C =      0.06274 [cm^-1]
  Rotational constants: A =  19043.24980  B =   1985.82287  C =   1880.79627 [MHz]
  Nuclear repulsion =  185.767497413614251

  Charge       = 0
  Multiplicity = 1
  Electrons    = 42
  Nalpha       = 21
  Nbeta        = 21

  ==> Algorithm <==

  SCF Algorithm Type is DF.
  DIIS enabled.
  MOM disabled.
  Fractional occupation disabled.
  Guess Type is SAD.
  Energy threshold   = 1.00e-08
  Density threshold  = 1.00e-08
  Integral threshold = 0.00e+00

  ==> Primary Basis <==

  Basis Set: 6-31G(D)
    Blend: 6-31G(D)
    Number of shells: 50
    Number of basis function: 95
    Number of Cartesian functions: 95
    Spherical Harmonics?: false
    Max angular momentum: 2

   => Loading Basis Set <=

    Name: (6-31G(D) AUX)
    Role: JKFIT
    Keyword: DF_BASIS_SCF
    atoms 1, 4, 8, 13               entry C          line   121 file /usr/local/hpc1/software_molmod/psi4/psi4conda/share/psi4/basis/cc-pvdz-jkfit.gbs 
    atoms 2-3, 5-7, 9-10, 12, 14-15 entry H          line    51 file /usr/local/hpc1/software_molmod/psi4/psi4conda/share/psi4/basis/cc-pvdz-jkfit.gbs 
    atoms 11                        entry O          line   221 file /usr/local/hpc1/software_molmod/psi4/psi4conda/share/psi4/basis/cc-pvdz-jkfit.gbs 

  ==> Pre-Iterations <==

   -------------------------------------------------------
    Irrep   Nso     Nmo     Nalpha   Nbeta   Ndocc  Nsocc
   -------------------------------------------------------
     A         95      95       0       0       0       0
   -------------------------------------------------------
    Total      95      95      21      21      21       0
   -------------------------------------------------------

  ==> Integral Setup <==

  ==> DiskDFJK: Density-Fitted J/K Matrices <==

    J tasked:                  Yes
    K tasked:                  Yes
    wK tasked:                  No
    OpenMP threads:             16
    Integrals threads:          16
    Memory (MB):             71525
    Algorithm:                Core
    Integral Cache:           NONE
    Schwarz Cutoff:          1E-12
    Fitting Condition:       1E-12

   => Auxiliary Basis Set <=

  Basis Set: (6-31G(D) AUX)
    Blend: CC-PVDZ-JKFIT
    Number of shells: 210
    Number of basis function: 655
    Number of Cartesian functions: 655
    Spherical Harmonics?: false
    Max angular momentum: 3

  Minimum eigenvalue in the overlap matrix is 3.5848541090E-03.
  Using Symmetric Orthogonalization.

  SCF Guess: Superposition of Atomic Densities via on-the-fly atomic UHF.

  ==> Iterations <==

                           Total Energy        Delta E     RMS |[F,P]|

   @DF-RHF iter   0:  -233.91939042575234   -2.33919e+02   1.59201e-01 
   @DF-RHF iter   1:  -232.01772637230590    1.90166e+00   1.17594e-02 
   @DF-RHF iter   2:  -232.13109126430112   -1.13365e-01   3.63008e-03 DIIS
   @DF-RHF iter   3:  -232.14274402446154   -1.16528e-02   1.67440e-03 DIIS
   @DF-RHF iter   4:  -232.14484989230641   -2.10587e-03   3.21242e-04 DIIS
   @DF-RHF iter   5:  -232.14498312890632   -1.33237e-04   1.72277e-04 DIIS
   @DF-RHF iter   6:  -232.14499732624881   -1.41973e-05   3.46728e-05 DIIS
   @DF-RHF iter   7:  -232.14499904069970   -1.71445e-06   1.41288e-05 DIIS
   @DF-RHF iter   8:  -232.14499921761487   -1.76915e-07   2.62747e-06 DIIS
   @DF-RHF iter   9:  -232.14499922704348   -9.42862e-09   1.06990e-06 DIIS
   @DF-RHF iter  10:  -232.14499922770420   -6.60719e-10   1.93299e-07 DIIS
   @DF-RHF iter  11:  -232.14499922773200   -2.77964e-11   2.34235e-08 DIIS
   @DF-RHF iter  12:  -232.14499922773399   -1.98952e-12   1.71027e-08 DIIS
   @DF-RHF iter  13:  -232.14499922773444   -4.54747e-13   3.47790e-09 DIIS

  ==> Post-Iterations <==

    Orbital Energies [Eh]
    ---------------------

    Doubly Occupied:                                                      

       1A    -20.552177     2A    -11.267460     3A    -11.218628  
       4A    -11.211084     5A    -11.209821     6A     -1.359030  
       7A     -1.070386     8A     -0.974699     9A     -0.855472  
      10A     -0.795932    11A     -0.691778    12A     -0.660084  
      13A     -0.603280    14A     -0.592512    15A     -0.560681  
      16A     -0.522219    17A     -0.510342    18A     -0.474700  
      19A     -0.469988    20A     -0.461533    21A     -0.434476  

    Virtual:                                                              

      22A      0.229215    23A      0.234656    24A      0.275339  
      25A      0.280862    26A      0.297762    27A      0.331104  
      28A      0.341496    29A      0.343563    30A      0.350077  
      31A      0.366277    32A      0.377082    33A      0.429685  
      34A      0.442473    35A      0.482106    36A      0.706076  
      37A      0.744446    38A      0.750917    39A      0.758547  
      40A      0.783003    41A      0.847945    42A      0.898340  
      43A      0.923416    44A      0.969133    45A      0.985254  
      46A      1.027031    47A      1.079683    48A      1.118173  
      49A      1.137552    50A      1.165502    51A      1.169425  
      52A      1.181188    53A      1.199439    54A      1.205447  
      55A      1.221921    56A      1.236553    57A      1.247360  
      58A      1.265737    59A      1.293154    60A      1.367142  
      61A      1.505487    62A      1.595438    63A      1.674896  
      64A      1.676352    65A      1.742035    66A      1.792171  
      67A      1.849025    68A      2.015772    69A      2.033304  
      70A      2.084745    71A      2.140887    72A      2.234437  
      73A      2.235953    74A      2.273864    75A      2.330943  
      76A      2.352407    77A      2.373711    78A      2.442408  
      79A      2.543377    80A      2.613339    81A      2.637733  
      82A      2.682578    83A      2.753654    84A      2.805831  
      85A      2.807937    86A      2.856272    87A      2.926002  
      88A      3.003350    89A      3.149568    90A      3.261140  
      91A      4.204642    92A      4.578616    93A      4.695000  
      94A      4.806156    95A      4.959167  

    Final Occupation by Irrep:
              A 
    DOCC [    21 ]

  Energy converged.

  @DF-RHF Final Energy:  -232.14499922773444

   => Energetics <=

    Nuclear Repulsion Energy =            185.7674974136142509
    One-Electron Energy =                -682.8324290036182447
    Two-Electron Energy =                 264.9199323622695488
    Total Energy =                       -232.1449992277344450



Properties will be evaluated at   0.000000,   0.000000,   0.000000 [a0]

Properties computed using the SCF density matrix

  Nuclear Dipole Moment: [e a0]
     X:    -4.1528      Y:    -1.7505      Z:     2.9568

  Electronic Dipole Moment: [e a0]
     X:     3.9555      Y:     1.2416      Z:    -3.3395

  Dipole Moment: [e a0]
     X:    -0.1973      Y:    -0.5090      Z:    -0.3827     Total:     0.6667

  Dipole Moment: [D]
     X:    -0.5015      Y:    -1.2937      Z:    -0.9727     Total:     1.6945


*** tstop() called on wr86 at Thu Dec  6 16:02:43 2018
Module time:
	user time   =      18.03 seconds =       0.30 minutes
	system time =       0.45 seconds =       0.01 minutes
	total time  =          2 seconds =       0.03 minutes
Total time:
	user time   =     151.46 seconds =       2.52 minutes
	system time =       5.11 seconds =       0.09 minutes
	total time  =         13 seconds =       0.22 minutes

*** tstart() called on wr86
*** at Thu Dec  6 16:02:43 2018


         ------------------------------------------------------------
                                   SCF GRAD                          
                          Rob Parrish, Justin Turney,                
                       Andy Simmonett, and Alex Sokolov              
         ------------------------------------------------------------

  ==> Geometry <==

    Molecular point group: c1
    Full point group: C1

    Geometry (in Angstrom), charge = 0, multiplicity = 1:

       Center              X                  Y                   Z               Mass       
    ------------   -----------------  -----------------  -----------------  -----------------
         C           -1.103426334780    -0.616193482595     0.598744665947    12.000000000000
         H           -0.788993088932    -1.655423880219     0.683274032367     1.007825032070
         H           -1.856925922194    -0.588888322807    -0.185726458625     1.007825032070
         C           -1.732986315851    -0.172372664270     1.918345944302    12.000000000000
         H           -2.089622183002     0.851624726181     1.855991404289     1.007825032070
         H           -1.014217499666    -0.222366537836     2.731069676525     1.007825032070
         H           -2.576879724550    -0.801824363330     2.182895170550     1.007825032070
         C            0.720283485668    -0.189722854320    -1.117825130330    12.000000000000
         H           -0.017288277709    -0.146770988007    -1.918138858224     1.007825032070
         H            1.059369124979    -1.222019674270    -1.042040755003     1.007825032070
         O            1.799227595330     0.665912110574    -1.393630903529    15.994914619560
         H            2.207600289777     0.410839698791    -2.208546381375     1.007825032070
         C            0.090733360725     0.247801599412     0.192823970282    12.000000000000
         H           -0.215568500224     1.285899240796     0.096240442788     1.007825032070
         H            0.853519034072     0.218210013879     0.966179166076     1.007825032070

  Nuclear repulsion =  185.767497413614251

  ==> Basis Set <==

  Basis Set: 6-31G(D)
    Blend: 6-31G(D)
    Number of shells: 50
    Number of basis function: 95
    Number of Cartesian functions: 95
    Spherical Harmonics?: false
    Max angular momentum: 2

  ==> DFJKGrad: Density-Fitted SCF Gradients <==

    Gradient:                    1
    J tasked:                  Yes
    K tasked:                  Yes
    wK tasked:                  No
    OpenMP threads:             16
    Integrals threads:          16
    Memory (MB):             71525
    Schwarz Cutoff:          0E+00
    Fitting Condition:       1E-12

   => Auxiliary Basis Set <=

  Basis Set: (6-31G(D) AUX)
    Blend: CC-PVDZ-JKFIT
    Number of shells: 210
    Number of basis function: 655
    Number of Cartesian functions: 655
    Spherical Harmonics?: false
    Max angular momentum: 3


  -Total Gradient:
     Atom            X                  Y                   Z
    ------   -----------------  -----------------  -----------------
       1       -0.000152263659     0.001082396470    -0.000018016094
       2        0.000145537294    -0.000535435861     0.000042077612
       3        0.000043263516    -0.000109012646     0.000034540016
       4        0.000049148197    -0.000189163269    -0.000071912228
       5        0.000025895744    -0.000016824727    -0.000060294777
       6       -0.000004244972     0.000002724235     0.000008416138
       7       -0.000012452582     0.000012219757     0.000032383822
       8        0.000025760826     0.000031881774     0.000008938722
       9       -0.000004687117    -0.000002896845     0.000000504472
      10       -0.000001967338    -0.000004569889     0.000000301397
      11        0.000000588361    -0.000007483671    -0.000010317695
      12        0.000005710936     0.000005854311    -0.000001803617
      13       -0.000074932262    -0.000240129142     0.000022509073
      14       -0.000054210025    -0.000034279399     0.000015645461
      15        0.000008853081     0.000004718900    -0.000002972300


*** tstop() called on wr86 at Thu Dec  6 16:02:44 2018
Module time:
	user time   =      16.94 seconds =       0.28 minutes
	system time =       0.72 seconds =       0.01 minutes
	total time  =          1 seconds =       0.02 minutes
Total time:
	user time   =     168.42 seconds =       2.81 minutes
	system time =       5.84 seconds =       0.10 minutes
	total time  =         14 seconds =       0.23 minutes

  //>>>>>>>>>>>>>>>>>>>>>>>>>>>>>>>>>>>//
  //    Loading displacement 5 of 79   //
  //<<<<<<<<<<<<<<<<<<<<<<<<<<<<<<<<<<<//
gradient() will perform analytic gradient computation.

*** tstart() called on wr86
*** at Thu Dec  6 16:02:44 2018

   => Loading Basis Set <=

    Name: 6-31G(D)
    Role: ORBITAL
    Keyword: BASIS
    atoms 1, 4, 8, 13               entry C          line   111 file /usr/local/hpc1/software_molmod/psi4/psi4conda/share/psi4/basis/6-31g_d_.gbs 
    atoms 2-3, 5-7, 9-10, 12, 14-15 entry H          line    44 file /usr/local/hpc1/software_molmod/psi4/psi4conda/share/psi4/basis/6-31g_d_.gbs 
    atoms 11                        entry O          line   145 file /usr/local/hpc1/software_molmod/psi4/psi4conda/share/psi4/basis/6-31g_d_.gbs 


         ---------------------------------------------------------
                                   SCF
            by Justin Turney, Rob Parrish, Andy Simmonett
                             and Daniel Smith
                              RHF Reference
                       16 Threads,  95367 MiB Core
         ---------------------------------------------------------

  ==> Geometry <==

    Molecular point group: c1
    Full point group: C1

    Geometry (in Angstrom), charge = 0, multiplicity = 1:

       Center              X                  Y                   Z               Mass       
    ------------   -----------------  -----------------  -----------------  -----------------
         C           -1.103426334780    -0.616840226742     0.598068714189    12.000000000000
         H           -0.789056371453    -1.655214962258     0.683511621198     1.007825032070
         H           -1.856969344709    -0.588648214615    -0.185474984265     1.007825032070
         C           -1.732907673873    -0.172068437250     1.918577535452    12.000000000000
[...]
      8   C                0.09 -0.09  0.07    0.03  0.05  0.03   -0.04  0.04 -0.03   
      9   H                0.23  0.44 -0.02   -0.25  0.01  0.29   -0.31 -0.24  0.20   
     10   H               -0.40 -0.27 -0.12   -0.23 -0.01  0.30    0.38  0.17 -0.14   
     11   O               -0.03  0.03 -0.02   -0.02 -0.04 -0.03    0.02 -0.02  0.02   
     12   H                0.00 -0.00  0.00    0.47  0.52  0.05    0.01 -0.01  0.00   
     13   C               -0.08  0.08 -0.06    0.02 -0.05 -0.09   -0.02  0.02 -0.02   
     14   H                0.08  0.15  0.25   -0.17 -0.09  0.10    0.27  0.09 -0.18   
     15   H                0.02 -0.24 -0.17   -0.17 -0.09  0.10   -0.25 -0.12  0.20   

  Vibration                       25                  26                  27          
  Freq [cm^-1]                1442.9061           1444.1208           1447.4940       
  Irrep                           A                   A                   A           
  Reduced mass [u]              1.1301              1.3500              1.0694        
  Force const [mDyne/A]         1.3863              1.6588              1.3201        
  Turning point v=0 [a0]        0.2717              0.2485              0.2789        
  RMS dev v=0 [a0 u^1/2]        0.2043              0.2042              0.2039        
  Char temp [K]               2076.0174           2077.7652           2082.6184       
  ----------------------------------------------------------------------------------
      1   C                0.01 -0.01  0.01   -0.07 -0.03  0.04   -0.02  0.02 -0.01   
      2   H                0.16  0.01 -0.19    0.27  0.04 -0.25    0.41  0.12 -0.33   
      3   H               -0.16 -0.01  0.18    0.26  0.06 -0.26   -0.39 -0.13  0.34   
      4   C               -0.02  0.02 -0.02    0.03  0.04  0.01   -0.03  0.03 -0.02   
      5   H               -0.00  0.04  0.09   -0.08 -0.01 -0.02   -0.03  0.04  0.12   
      6   H                0.03 -0.06 -0.07   -0.01 -0.07  0.03    0.05 -0.06 -0.10   
      7   H                0.04 -0.04  0.04    0.06 -0.08 -0.18    0.02 -0.02  0.02   
      8   C               -0.03  0.03 -0.02    0.02  0.06  0.04    0.02 -0.02  0.02   
      9   H                0.38  0.06 -0.38    0.03  0.06  0.03   -0.04  0.03  0.08   
     10   H               -0.38 -0.07  0.39    0.03  0.06  0.04    0.03 -0.03 -0.08   
     11   O               -0.01  0.01 -0.01   -0.02 -0.04 -0.03   -0.00  0.00 -0.00   
     12   H               -0.01  0.01 -0.01    0.30  0.33  0.03    0.00  0.00  0.00   
     13   C                0.05 -0.05  0.04   -0.08 -0.04  0.05    0.03 -0.03  0.02   
     14   H                0.15 -0.06 -0.32    0.34  0.05 -0.31   -0.33 -0.11  0.24   
     15   H               -0.19  0.10  0.28    0.31  0.07 -0.33    0.32  0.13 -0.26   

  Vibration                       28                  29                  30          
  Freq [cm^-1]                1539.0459           1567.4999           1616.9922       
  Irrep                           A                   A                   A           
  Reduced mass [u]              1.4502              1.3057              1.4659        
  Force const [mDyne/A]         2.0239              1.8902              2.2582        
  Turning point v=0 [a0]        0.2323              0.2425              0.2254        
  RMS dev v=0 [a0 u^1/2]        0.1978              0.1960              0.1929        
  Char temp [K]               2214.3410           2255.2800           2326.4882       
  ----------------------------------------------------------------------------------
      1   C                0.10  0.02 -0.10   -0.05 -0.01  0.05   -0.02 -0.00  0.02   
      2   H               -0.31 -0.06  0.34    0.16  0.05 -0.10    0.05  0.02 -0.04   
      3   H               -0.33 -0.04  0.32    0.14  0.07 -0.12    0.05  0.01 -0.04   
      4   C               -0.01 -0.04 -0.04    0.07 -0.03 -0.12    0.00  0.00  0.00   
      5   H                0.04  0.00  0.23   -0.22 -0.08  0.50   -0.02 -0.01 -0.03   
      6   H               -0.13  0.17  0.09   -0.42  0.12  0.33    0.01 -0.04 -0.01   
      7   H               -0.06  0.14  0.25   -0.03  0.31  0.42    0.00  0.00 -0.00   
      8   C               -0.01  0.01  0.04    0.01  0.00 -0.01   -0.11 -0.00  0.13   
      9   H                0.15  0.05 -0.11   -0.04 -0.01  0.04    0.44  0.10 -0.35   
     10   H                0.14  0.06 -0.12   -0.04 -0.01  0.04    0.40  0.14 -0.38   
     11   O               -0.01 -0.02 -0.02    0.00  0.00  0.00   -0.01 -0.03 -0.03   
     12   H                0.14  0.14  0.01   -0.02 -0.02 -0.00    0.23  0.24  0.01   
     13   C               -0.08 -0.01  0.08    0.02 -0.00 -0.03    0.07  0.03 -0.05   
     14   H                0.22  0.04 -0.25   -0.06 -0.02  0.04   -0.29 -0.08 -0.02   
     15   H                0.24  0.02 -0.23   -0.05 -0.03  0.04   -0.12 -0.25  0.12   

  Vibration                       31                  32                  33          
  Freq [cm^-1]                1636.9689           1644.1707           1644.3012       
  Irrep                           A                   A                   A           
  Reduced mass [u]              1.0632              1.0988              1.0418        
  Force const [mDyne/A]         1.6786              1.7500              1.6596        
  Turning point v=0 [a0]        0.2630              0.2582              0.2651        
  RMS dev v=0 [a0 u^1/2]        0.1918              0.1913              0.1913        
  Char temp [K]               2355.2302           2365.5920           2365.7798       
  ----------------------------------------------------------------------------------
      1   C               -0.01 -0.04 -0.04    0.02  0.01 -0.01   -0.01  0.01 -0.01   
      2   H                0.31  0.11  0.41   -0.07 -0.01 -0.01   -0.01  0.02  0.03   
      3   H               -0.09  0.51  0.08   -0.02 -0.06  0.03    0.01 -0.02 -0.03   
      4   C                0.02  0.02  0.01    0.02  0.02  0.00   -0.03  0.03 -0.03   
      5   H               -0.28 -0.10 -0.25   -0.30 -0.11 -0.21    0.41  0.16 -0.22   
      6   H                0.01 -0.39 -0.02   -0.01 -0.36 -0.01   -0.35 -0.23  0.26   
      7   H               -0.02  0.11  0.16   -0.04  0.15  0.18    0.44 -0.43  0.36   
      8   C                0.01  0.00 -0.01   -0.02  0.00  0.03    0.00 -0.00  0.00   
      9   H               -0.04 -0.02  0.03    0.09 -0.07 -0.07   -0.00  0.00  0.00   
     10   H               -0.05 -0.02  0.03    0.02  0.00 -0.13    0.00 -0.00 -0.01   
     11   O               -0.00  0.00  0.00    0.00 -0.00 -0.01    0.00 -0.00 -0.00   
     12   H               -0.02 -0.02 -0.00    0.05  0.05  0.00    0.00  0.00 -0.00   
     13   C                0.00  0.02  0.02   -0.02 -0.05 -0.04    0.00 -0.00 -0.00   
     14   H               -0.13 -0.05 -0.17    0.34  0.11  0.42   -0.01  0.00  0.03   
     15   H                0.04 -0.21 -0.03   -0.09  0.54  0.07    0.02  0.02 -0.02   

  Vibration                       34                  35                  36          
  Freq [cm^-1]                1656.0901           1683.5465           3167.4444       
  Irrep                           A                   A                   A           
  Reduced mass [u]              1.1005              1.0931              1.0561        
  Force const [mDyne/A]         1.7783              1.8254              6.2426        
  Turning point v=0 [a0]        0.2570              0.2558              0.1897        
  RMS dev v=0 [a0 u^1/2]        0.1907              0.1891              0.1379        
  Char temp [K]               2382.7413           2422.2449           4557.2404       
  ----------------------------------------------------------------------------------
      1   C               -0.03 -0.05 -0.02   -0.00 -0.01 -0.01    0.01  0.01  0.01   
      2   H                0.32  0.09  0.30    0.07  0.02  0.06    0.05 -0.16  0.02   
      3   H               -0.03  0.45  0.01   -0.01  0.09  0.00   -0.12  0.01 -0.12   
      4   C               -0.02 -0.02 -0.00   -0.00 -0.00  0.00   -0.00 -0.00  0.00   
      5   H                0.30  0.11  0.22    0.02  0.01  0.01   -0.00 -0.00  0.00   
      6   H                0.02  0.39 -0.00    0.00  0.02  0.00   -0.00 -0.00  0.00   
      7   H                0.01 -0.14 -0.19    0.00 -0.01 -0.01    0.01  0.01 -0.00   
      8   C               -0.01  0.01  0.03   -0.03 -0.07 -0.04   -0.02 -0.05 -0.04   
      9   H                0.05 -0.13 -0.05   -0.04  0.68  0.05    0.46 -0.05  0.50   
     10   H               -0.05 -0.02 -0.14    0.47  0.17  0.47   -0.23  0.64 -0.06   
     11   O                0.00 -0.00 -0.00   -0.00 -0.00 -0.00   -0.00 -0.00  0.00   
     12   H                0.02  0.02  0.00   -0.00 -0.00 -0.00   -0.01 -0.01 -0.00   
     13   C                0.00 -0.03 -0.04   -0.00 -0.01 -0.01   -0.00  0.00  0.00   
     14   H                0.17  0.06  0.25    0.07  0.02  0.11    0.00 -0.01  0.00   
     15   H               -0.06  0.29  0.05   -0.03  0.12  0.03   -0.01  0.00 -0.01   

  Vibration                       37                  38                  39          
  Freq [cm^-1]                3187.5004           3191.6601           3199.2007       
  Irrep                           A                   A                   A           
  Reduced mass [u]              1.0590              1.1078              1.0396        
  Force const [mDyne/A]         6.3392              6.6490              6.2689        
  Turning point v=0 [a0]        0.1889              0.1845              0.1903        
  RMS dev v=0 [a0 u^1/2]        0.1374              0.1373              0.1372        
  Char temp [K]               4586.0964           4592.0813           4602.9305       
  ----------------------------------------------------------------------------------
      1   C               -0.02 -0.05 -0.03   -0.01  0.01 -0.00    0.00  0.01  0.01   
      2   H               -0.20  0.62 -0.06    0.02 -0.06  0.00    0.05 -0.16  0.01   
      3   H                0.46 -0.03  0.47    0.05 -0.00  0.05   -0.12  0.01 -0.12   
      4   C                0.01  0.00 -0.01    0.00 -0.00  0.00    0.01 -0.02 -0.04   
      5   H               -0.03  0.10 -0.01   -0.01  0.02 -0.00   -0.19  0.54 -0.05   
      6   H                0.07 -0.00  0.07   -0.01  0.00 -0.02    0.39 -0.03  0.42   
      7   H               -0.16 -0.12  0.04    0.00 -0.00  0.00   -0.36 -0.28  0.11   
      8   C               -0.00 -0.01 -0.01    0.06 -0.06  0.05    0.00  0.00  0.00   
      9   H                0.11 -0.01  0.12   -0.45  0.03 -0.51   -0.03  0.00 -0.03   
     10   H               -0.06  0.16 -0.01   -0.22  0.64 -0.04    0.01 -0.04  0.00   
     11   O               -0.00 -0.00  0.00   -0.00  0.00 -0.00    0.00 -0.00 -0.00   
     12   H               -0.00 -0.00 -0.00   -0.00  0.00 -0.00    0.00  0.00 -0.00   
     13   C                0.00  0.01  0.00   -0.01  0.01 -0.01    0.01  0.01  0.01   
     14   H                0.03 -0.09  0.01    0.04 -0.16  0.02    0.05 -0.15  0.02   
     15   H               -0.07  0.00 -0.07    0.12 -0.00  0.12   -0.11  0.01 -0.12   

  Vibration                       40                  41                  42          
  Freq [cm^-1]                3208.8615           3209.5565           3249.0963       
  Irrep                           A                   A                   A           
  Reduced mass [u]              1.1038              1.0590              1.1063        
  Force const [mDyne/A]         6.6963              6.4274              6.8810        
  Turning point v=0 [a0]        0.1844              0.1882              0.1830        
  RMS dev v=0 [a0 u^1/2]        0.1370              0.1370              0.1361        
  Char temp [K]               4616.8302           4617.8302           4674.7191       
  ----------------------------------------------------------------------------------
      1   C                0.05 -0.05  0.04   -0.00 -0.00 -0.00    0.01 -0.01  0.01   
      2   H               -0.19  0.62 -0.05   -0.01  0.04 -0.01   -0.03  0.10 -0.01   
      3   H               -0.45  0.01 -0.47    0.03 -0.00  0.03   -0.08  0.00 -0.07   
      4   C               -0.01  0.01 -0.01    0.01 -0.00 -0.01   -0.03  0.03 -0.02   
      5   H                0.05 -0.15  0.01   -0.05  0.13 -0.01    0.11 -0.34  0.02   
      6   H                0.11 -0.01  0.12    0.10 -0.01  0.11    0.24 -0.01  0.27   
      7   H               -0.00  0.00 -0.00   -0.13 -0.10  0.04   -0.01  0.01 -0.01   
      8   C                0.00 -0.00  0.00   -0.00 -0.00 -0.00    0.01 -0.01  0.01   
      9   H               -0.01 -0.00 -0.01    0.02 -0.00  0.02   -0.10  0.01 -0.12   
     10   H               -0.00  0.01 -0.00   -0.01  0.02 -0.00   -0.05  0.15 -0.01   
     11   O               -0.00  0.00 -0.00    0.00  0.00 -0.00   -0.00  0.00 -0.00   
     12   H                0.00 -0.00  0.00    0.00  0.00 -0.00   -0.00  0.00 -0.00   
     13   C               -0.02  0.02 -0.01   -0.02 -0.05 -0.04    0.05 -0.05  0.04   
     14   H                0.06 -0.22  0.02   -0.20  0.64 -0.07   -0.16  0.55 -0.05   
     15   H                0.16 -0.00  0.16    0.48 -0.03  0.48   -0.40  0.01 -0.41   

  Vibration                       43                  44                  45          
  Freq [cm^-1]                3263.3586           3264.8730           4115.2319       
  Irrep                           A                   A                   A           
  Reduced mass [u]              1.1026              1.1043              1.0669        
  Force const [mDyne/A]         6.9186              6.9356             10.6458        
  Turning point v=0 [a0]        0.1829              0.1827              0.1656        
  RMS dev v=0 [a0 u^1/2]        0.1358              0.1358              0.1209        
  Char temp [K]               4695.2393           4697.4181           5920.8935       
  ----------------------------------------------------------------------------------
      1   C               -0.00 -0.01 -0.00    0.02 -0.02  0.02   -0.00 -0.00 -0.00   
      2   H               -0.02  0.07 -0.01   -0.07  0.23 -0.02   -0.00  0.00 -0.00   
      3   H                0.05 -0.00  0.06   -0.17  0.01 -0.18    0.00  0.00  0.00   
      4   C               -0.06 -0.07 -0.00    0.05 -0.05  0.04    0.00  0.00 -0.00   
      5   H               -0.13  0.34 -0.03   -0.19  0.55 -0.03   -0.00  0.00  0.00   
      6   H                0.24 -0.03  0.28   -0.39  0.02 -0.43    0.00  0.00  0.00   
      7   H                0.65  0.49 -0.20    0.01 -0.01  0.01   -0.00 -0.00  0.00   
      8   C               -0.00 -0.00 -0.00    0.01 -0.01  0.01   -0.00 -0.00 -0.00   
      9   H                0.01 -0.00  0.01   -0.05  0.00 -0.06   -0.00 -0.00  0.00   
     10   H               -0.00  0.01 -0.00   -0.03  0.07 -0.00   -0.00 -0.00  0.00   
     11   O               -0.00  0.00  0.00   -0.00  0.00 -0.00    0.03 -0.02 -0.05   
     12   H               -0.00 -0.00  0.00   -0.00  0.00 -0.00   -0.44  0.26  0.86   
     13   C               -0.00 -0.00 -0.00    0.02 -0.02  0.02    0.00  0.00  0.00   
     14   H               -0.01  0.02 -0.00   -0.08  0.29 -0.03   -0.00  0.00  0.00   
     15   H                0.02 -0.00  0.02   -0.21  0.01 -0.21   -0.00 -0.00  0.00   

  ==> Thermochemistry Components <==

  Entropy, S
    Electronic S            0.000 [cal/(mol K)]        0.000 [J/(mol K)]       0.00000000 [mEh/K] (multiplicity = 1)
    Translational S        38.823 [cal/(mol K)]      162.437 [J/(mol K)]       0.06186912 [mEh/K] (mol. weight = 74.0732 [u], P = 101325.00 [Pa])
    Rotational S           25.917 [cal/(mol K)]      108.436 [J/(mol K)]       0.04130094 [mEh/K] (symmetry no. = 1)
    Vibrational S          13.813 [cal/(mol K)]       57.792 [J/(mol K)]       0.02201164 [mEh/K]
  Total S                  78.553 [cal/(mol K)]      328.665 [J/(mol K)]       0.12518171 [mEh/K]
  Correction S              0.000 [cal/(mol K)]        0.000 [J/(mol K)]       0.00000000 [mEh/K]

  Constant volume heat capacity, Cv
    Electronic Cv           0.000 [cal/(mol K)]        0.000 [J/(mol K)]       0.00000000 [mEh/K]
    Translational Cv        2.981 [cal/(mol K)]       12.472 [J/(mol K)]       0.00475022 [mEh/K]
    Rotational Cv           2.981 [cal/(mol K)]       12.472 [J/(mol K)]       0.00475022 [mEh/K]
    Vibrational Cv         15.780 [cal/(mol K)]       66.022 [J/(mol K)]       0.02514635 [mEh/K]
  Total Cv                 21.741 [cal/(mol K)]       90.965 [J/(mol K)]       0.03464680 [mEh/K]
  Correction Cv             0.000 [cal/(mol K)]        0.000 [J/(mol K)]       0.00000000 [mEh/K]

  Constant pressure heat capacity, Cp
    Electronic Cp           0.000 [cal/(mol K)]        0.000 [J/(mol K)]       0.00000000 [mEh/K]
    Translational Cp        4.968 [cal/(mol K)]       20.786 [J/(mol K)]       0.00791704 [mEh/K]
    Rotational Cp           2.981 [cal/(mol K)]       12.472 [J/(mol K)]       0.00475022 [mEh/K]
    Vibrational Cp         15.780 [cal/(mol K)]       66.022 [J/(mol K)]       0.02514635 [mEh/K]
  Total Cp                 23.728 [cal/(mol K)]       99.280 [J/(mol K)]       0.03781361 [mEh/K]
  Correction Cp             0.000 [cal/(mol K)]        0.000 [J/(mol K)]       0.00000000 [mEh/K]

  ==> Thermochemistry Energy Analysis <==

  Raw electronic energy, E0
  Total E0, Electronic energy at well bottom at 0 [K]                 -232.14500017 [Eh]

  Zero-point energy, ZPE_vib = Sum_i nu_i / 2
    Electronic ZPE          0.000 [kcal/mol]        0.000 [kJ/mol]       0.00000000 [Eh]
    Translational ZPE       0.000 [kcal/mol]        0.000 [kJ/mol]       0.00000000 [Eh]
    Rotational ZPE          0.000 [kcal/mol]        0.000 [kJ/mol]       0.00000000 [Eh]
    Vibrational ZPE        92.373 [kcal/mol]      386.490 [kJ/mol]       0.14720643 [Eh]       32308.073 [cm^-1]
  Correction ZPE           92.373 [kcal/mol]      386.490 [kJ/mol]       0.14720643 [Eh]       32308.073 [cm^-1]
  Total ZPE, Electronic energy at 0 [K]                               -231.99779374 [Eh]

  Thermal Energy, E (includes ZPE)
    Electronic E            0.000 [kcal/mol]        0.000 [kJ/mol]       0.00000000 [Eh]
    Translational E         0.889 [kcal/mol]        3.718 [kJ/mol]       0.00141628 [Eh]
    Rotational E            0.889 [kcal/mol]        3.718 [kJ/mol]       0.00141628 [Eh]
    Vibrational E          94.710 [kcal/mol]      396.265 [kJ/mol]       0.15092933 [Eh]
  Correction E             96.487 [kcal/mol]      403.702 [kJ/mol]       0.15376188 [Eh]
  Total E, Electronic energy at  298.15 [K]                           -231.99123828 [Eh]

  Enthalpy, H_trans = E_trans + k_B * T
    Electronic H            0.000 [kcal/mol]        0.000 [kJ/mol]       0.00000000 [Eh]
    Translational H         1.481 [kcal/mol]        6.197 [kJ/mol]       0.00236046 [Eh]
    Rotational H            0.889 [kcal/mol]        3.718 [kJ/mol]       0.00141628 [Eh]
    Vibrational H          94.710 [kcal/mol]      396.265 [kJ/mol]       0.15092933 [Eh]
  Correction H             97.080 [kcal/mol]      406.181 [kJ/mol]       0.15470607 [Eh]
  Total H, Enthalpy at  298.15 [K]                                    -231.99029410 [Eh]

  Gibbs free energy, G = H - T * S
    Electronic G            0.000 [kcal/mol]        0.000 [kJ/mol]       0.00000000 [Eh]
    Translational G       -10.094 [kcal/mol]      -42.233 [kJ/mol]      -0.01608581 [Eh]
    Rotational G           -6.838 [kcal/mol]      -28.612 [kJ/mol]      -0.01089760 [Eh]
    Vibrational G          90.591 [kcal/mol]      379.034 [kJ/mol]       0.14436655 [Eh]
  Correction G             73.659 [kcal/mol]      308.189 [kJ/mol]       0.11738314 [Eh]
  Total G, Free enthalpy at  298.15 [K]                               -232.02761702 [Eh]

    Psi4 stopped on: Thursday, 06 December 2018 04:06PM
    Psi4 wall time for execution: 0:03:35.44

*** Psi4 exiting successfully. Buy a developer a beer!
