
    -----------------------------------------------------------------------
          Psi4: An Open-Source Ab Initio Electronic Structure Package
                               Psi4 1.2.1 release

                         Git: Rev {HEAD} 406f4de 


    R. M. Parrish, L. A. Burns, D. G. A. Smith, A. C. Simmonett,
    A. E. DePrince III, E. G. Hohenstein, U. Bozkaya, A. Yu. Sokolov,
    R. Di Remigio, R. M. Richard, J. F. Gonthier, A. M. James,
    H. R. McAlexander, A. Kumar, M. Saitow, X. Wang, B. P. Pritchard,
    P. Verma, H. F. Schaefer III, K. Patkowski, R. A. King, E. F. Valeev,
    F. A. Evangelista, J. M. Turney, T. D. Crawford, and C. D. Sherrill,
    J. Chem. Theory Comput. 13(7) pp 3185--3197 (2017).
    (doi: 10.1021/acs.jctc.7b00174)


                         Additional Contributions by
    P. Kraus, H. Kruse, M. H. Lechner, M. C. Schieber, and R. A. Shaw

    -----------------------------------------------------------------------


    Psi4 started on: Thursday, 06 December 2018 04:10PM

    Process ID: 226397
    Host:       wr86
    PSIDATADIR: /usr/local/hpc1/software_molmod/psi4/psi4conda/share/psi4
    Memory:     500.0 MiB
    Threads:    16
    
  ==> Input File <==

--------------------------------------------------------------------------
memory 100 Gb

molecule conf_01 {
0 1
  C    -0.657324116451    -0.467911503876     0.775778281506
  H    -0.326253455955    -1.500134913972     0.875169609193
  H    -1.406068335802    -0.457226783174    -0.008402130385
  C    -1.281197875301    -0.007217273578     2.092598179185
  H    -1.650683064132     1.011490600575     2.015338779382
  H    -0.558341599563    -0.034982657455     2.903617097621
  H    -2.117022096344    -0.640540579924     2.373600412860
  C     1.161471433421    -0.033938330002    -0.959730130395
  H     1.491026397753    -1.069694559982    -0.886890762114
  H     2.039733839999     0.576250766265    -1.162789162522
  O     0.215577004508     0.111334192233    -1.988951042744
  H     0.585896594536    -0.188337742783    -2.806791440721
  C     0.526811529878     0.401416205798     0.349981789178
  H     0.206353761610     1.435031173296     0.247634853194
  H     1.293547697739     0.382971116862     1.122511059286
}
set globals {
  reference rhf
  basis 6-31G(d)
}
frequency('scf', dertype=1)

--------------------------------------------------------------------------

  Memory set to  93.132 GiB by Python driver.
gradient() will perform analytic gradient computation.

*** tstart() called on wr86
*** at Thu Dec  6 16:10:13 2018

   => Loading Basis Set <=

    Name: 6-31G(D)
    Role: ORBITAL
    Keyword: BASIS
    atoms 1, 4, 8, 13               entry C          line   111 file /usr/local/hpc1/software_molmod/psi4/psi4conda/share/psi4/basis/6-31g_d_.gbs 
    atoms 2-3, 5-7, 9-10, 12, 14-15 entry H          line    44 file /usr/local/hpc1/software_molmod/psi4/psi4conda/share/psi4/basis/6-31g_d_.gbs 
    atoms 11                        entry O          line   145 file /usr/local/hpc1/software_molmod/psi4/psi4conda/share/psi4/basis/6-31g_d_.gbs 


         ---------------------------------------------------------
                                   SCF
            by Justin Turney, Rob Parrish, Andy Simmonett
                             and Daniel Smith
                              RHF Reference
                       16 Threads,  95367 MiB Core
         ---------------------------------------------------------

  ==> Geometry <==

    Molecular point group: c1
    Full point group: C1

    Geometry (in Angstrom), charge = 0, multiplicity = 1:

       Center              X                  Y                   Z               Mass       
    ------------   -----------------  -----------------  -----------------  -----------------
         C           -0.657324116451    -0.467911503876     0.775778281506    12.000000000000
         H           -0.326253455955    -1.500134913972     0.875169609193     1.007825032070
         H           -1.406068335802    -0.457226783174    -0.008402130385     1.007825032070
         C           -1.281197875301    -0.007217273578     2.092598179185    12.000000000000
         H           -1.650683064132     1.011490600575     2.015338779382     1.007825032070
         H           -0.558341599563    -0.034982657455     2.903617097621     1.007825032070
         H           -2.117022096344    -0.640540579924     2.373600412860     1.007825032070
         C            1.161471433421    -0.033938330002    -0.959730130395    12.000000000000
         H            1.491026397753    -1.069694559982    -0.886890762114     1.007825032070
         H            2.039733839999     0.576250766265    -1.162789162522     1.007825032070
         O            0.215577004508     0.111334192233    -1.988951042744    15.994914619560
         H            0.585896594536    -0.188337742783    -2.806791440721     1.007825032070
         C            0.526811529878     0.401416205798     0.349981789178    12.000000000000
         H            0.206353761610     1.435031173296     0.247634853194     1.007825032070
         H            1.293547697739     0.382971116862     1.122511059286     1.007825032070

  Running in c1 symmetry.

  Rotational constants: A =      0.42612  B =      0.07903  C =      0.07305 [cm^-1]
  Rotational constants: A =  12774.87093  B =   2369.32575  C =   2190.08360 [MHz]
  Nuclear repulsion =  188.675486150713795

  Charge       = 0
  Multiplicity = 1
  Electrons    = 42
  Nalpha       = 21
  Nbeta        = 21

  ==> Algorithm <==

  SCF Algorithm Type is DF.
  DIIS enabled.
  MOM disabled.
  Fractional occupation disabled.
  Guess Type is SAD.
  Energy threshold   = 1.00e-08
  Density threshold  = 1.00e-08
  Integral threshold = 0.00e+00

  ==> Primary Basis <==

  Basis Set: 6-31G(D)
    Blend: 6-31G(D)
    Number of shells: 50
    Number of basis function: 95
    Number of Cartesian functions: 95
    Spherical Harmonics?: false
    Max angular momentum: 2

   => Loading Basis Set <=

    Name: (6-31G(D) AUX)
    Role: JKFIT
    Keyword: DF_BASIS_SCF
    atoms 1, 4, 8, 13               entry C          line   121 file /usr/local/hpc1/software_molmod/psi4/psi4conda/share/psi4/basis/cc-pvdz-jkfit.gbs 
    atoms 2-3, 5-7, 9-10, 12, 14-15 entry H          line    51 file /usr/local/hpc1/software_molmod/psi4/psi4conda/share/psi4/basis/cc-pvdz-jkfit.gbs 
    atoms 11                        entry O          line   221 file /usr/local/hpc1/software_molmod/psi4/psi4conda/share/psi4/basis/cc-pvdz-jkfit.gbs 

  ==> Pre-Iterations <==

   -------------------------------------------------------
    Irrep   Nso     Nmo     Nalpha   Nbeta   Ndocc  Nsocc
   -------------------------------------------------------
     A         95      95       0       0       0       0
   -------------------------------------------------------
    Total      95      95      21      21      21       0
   -------------------------------------------------------

  ==> Integral Setup <==

  ==> DiskDFJK: Density-Fitted J/K Matrices <==

    J tasked:                  Yes
    K tasked:                  Yes
    wK tasked:                  No
    OpenMP threads:             16
    Integrals threads:          16
    Memory (MB):             71525
    Algorithm:                Core
    Integral Cache:           NONE
    Schwarz Cutoff:          1E-12
    Fitting Condition:       1E-12

   => Auxiliary Basis Set <=

  Basis Set: (6-31G(D) AUX)
    Blend: CC-PVDZ-JKFIT
    Number of shells: 210
    Number of basis function: 655
    Number of Cartesian functions: 655
    Spherical Harmonics?: false
    Max angular momentum: 3

  Minimum eigenvalue in the overlap matrix is 4.1120397762E-03.
  Using Symmetric Orthogonalization.

  SCF Guess: Superposition of Atomic Densities via on-the-fly atomic UHF.

  ==> Iterations <==

                           Total Energy        Delta E     RMS |[F,P]|

   @DF-RHF iter   0:  -233.93568857321088   -2.33936e+02   1.14680e-01 
   @DF-RHF iter   1:  -231.97711649213400    1.95857e+00   1.38018e-02 
   @DF-RHF iter   2:  -232.11654932837007   -1.39433e-01   1.01994e-02 DIIS
   @DF-RHF iter   3:  -232.14116704678491   -2.46177e-02   3.00466e-03 DIIS
   @DF-RHF iter   4:  -232.14507078707214   -3.90374e-03   4.07174e-04 DIIS
   @DF-RHF iter   5:  -232.14523562377525   -1.64837e-04   1.71608e-04 DIIS
   @DF-RHF iter   6:  -232.14525131488273   -1.56911e-05   2.53017e-05 DIIS
   @DF-RHF iter   7:  -232.14525259936306   -1.28448e-06   7.36332e-06 DIIS
   @DF-RHF iter   8:  -232.14525268489126   -8.55282e-08   1.75640e-06 DIIS
   @DF-RHF iter   9:  -232.14525269077677   -5.88551e-09   1.04245e-06 DIIS
   @DF-RHF iter  10:  -232.14525269150556   -7.28789e-10   1.65573e-07 DIIS
   @DF-RHF iter  11:  -232.14525269154984   -4.42810e-11   5.09972e-08 DIIS
   @DF-RHF iter  12:  -232.14525269155294   -3.09797e-12   9.94759e-09 DIIS

  ==> Post-Iterations <==

    Orbital Energies [Eh]
    ---------------------

    Doubly Occupied:                                                      

       1A    -20.553191     2A    -11.268152     3A    -11.212126  
       4A    -11.208592     5A    -11.204664     6A     -1.359911  
       7A     -1.064578     8A     -0.973529     9A     -0.856017  
      10A     -0.786328    11A     -0.705148    12A     -0.637877  
      13A     -0.610162    14A     -0.591149    15A     -0.545796  
      16A     -0.528155    17A     -0.512720    18A     -0.475093  
      19A     -0.464899    20A     -0.457003    21A     -0.430111  

    Virtual:                                                              

      22A      0.225080    23A      0.249615    24A      0.276024  
      25A      0.290210    26A      0.307991    27A      0.326775  
      28A      0.338984    29A      0.344612    30A      0.351807  
      31A      0.363388    32A      0.396694    33A      0.431317  
      34A      0.436381    35A      0.453540    36A      0.710713  
      37A      0.722976    38A      0.756366    39A      0.760235  
      40A      0.808334    41A      0.846061    42A      0.879797  
      43A      0.934358    44A      0.963631    45A      1.007483  
      46A      1.042856    47A      1.102473    48A      1.129622  
      49A      1.139928    50A      1.154214    51A      1.175695  
      52A      1.191803    53A      1.200611    54A      1.216257  
      55A      1.226599    56A      1.235597    57A      1.260867  
      58A      1.271792    59A      1.298220    60A      1.330264  
      61A      1.481417    62A      1.545217    63A      1.679713  
      64A      1.697666    65A      1.741851    66A      1.863172  
      67A      1.881135    68A      1.995166    69A      2.024785  
      70A      2.050124    71A      2.134904    72A      2.189604  
      73A      2.236705    74A      2.287619    75A      2.311161  
      76A      2.365579    77A      2.406991    78A      2.464154  
      79A      2.581326    80A      2.617281    81A      2.641977  
      82A      2.712518    83A      2.730644    84A      2.773078  
      85A      2.796579    86A      2.869884    87A      2.963171  
      88A      3.061070    89A      3.086733    90A      3.238123  
      91A      4.177652    92A      4.578898    93A      4.708092  
      94A      4.816336    95A      4.961314  

    Final Occupation by Irrep:
              A 
    DOCC [    21 ]

  Energy converged.

  @DF-RHF Final Energy:  -232.14525269155294

   => Energetics <=

    Nuclear Repulsion Energy =            188.6754861507137946
    One-Electron Energy =                -688.7510763304893544
    Two-Electron Energy =                 267.9303374882225626
    Total Energy =                       -232.1452526915529688



Properties will be evaluated at   0.000000,   0.000000,   0.000000 [a0]

Properties computed using the SCF density matrix

  Nuclear Dipole Moment: [e a0]
     X:    -0.4131      Y:    -0.4543      Z:     4.3712

  Electronic Dipole Moment: [e a0]
     X:     1.0058      Y:     0.2055      Z:    -4.5141

  Dipole Moment: [e a0]
     X:     0.5926      Y:    -0.2488      Z:    -0.1429     Total:     0.6584

  Dipole Moment: [D]
     X:     1.5063      Y:    -0.6325      Z:    -0.3631     Total:     1.6736


*** tstop() called on wr86 at Thu Dec  6 16:10:15 2018
Module time:
	user time   =      16.00 seconds =       0.27 minutes
	system time =       0.73 seconds =       0.01 minutes
	total time  =          2 seconds =       0.03 minutes
Total time:
	user time   =      16.00 seconds =       0.27 minutes
	system time =       0.73 seconds =       0.01 minutes
	total time  =          2 seconds =       0.03 minutes

*** tstart() called on wr86
*** at Thu Dec  6 16:10:15 2018


         ------------------------------------------------------------
                                   SCF GRAD                          
                          Rob Parrish, Justin Turney,                
                       Andy Simmonett, and Alex Sokolov              
         ------------------------------------------------------------

  ==> Geometry <==

    Molecular point group: c1
    Full point group: C1

    Geometry (in Angstrom), charge = 0, multiplicity = 1:

       Center              X                  Y                   Z               Mass       
    ------------   -----------------  -----------------  -----------------  -----------------
         C           -0.657324116451    -0.467911503876     0.775778281506    12.000000000000
         H           -0.326253455955    -1.500134913972     0.875169609193     1.007825032070
         H           -1.406068335802    -0.457226783174    -0.008402130385     1.007825032070
         C           -1.281197875301    -0.007217273578     2.092598179185    12.000000000000
         H           -1.650683064132     1.011490600575     2.015338779382     1.007825032070
         H           -0.558341599563    -0.034982657455     2.903617097621     1.007825032070
         H           -2.117022096344    -0.640540579924     2.373600412860     1.007825032070
         C            1.161471433421    -0.033938330002    -0.959730130395    12.000000000000
         H            1.491026397753    -1.069694559982    -0.886890762114     1.007825032070
         H            2.039733839999     0.576250766265    -1.162789162522     1.007825032070
         O            0.215577004508     0.111334192233    -1.988951042744    15.994914619560
         H            0.585896594536    -0.188337742783    -2.806791440721     1.007825032070
         C            0.526811529878     0.401416205798     0.349981789178    12.000000000000
         H            0.206353761610     1.435031173296     0.247634853194     1.007825032070
         H            1.293547697739     0.382971116862     1.122511059286     1.007825032070

  Nuclear repulsion =  188.675486150713795

  ==> Basis Set <==

  Basis Set: 6-31G(D)
    Blend: 6-31G(D)
    Number of shells: 50
    Number of basis function: 95
    Number of Cartesian functions: 95
    Spherical Harmonics?: false
    Max angular momentum: 2

  ==> DFJKGrad: Density-Fitted SCF Gradients <==

    Gradient:                    1
    J tasked:                  Yes
    K tasked:                  Yes
    wK tasked:                  No
    OpenMP threads:             16
    Integrals threads:          16
    Memory (MB):             71525
    Schwarz Cutoff:          0E+00
    Fitting Condition:       1E-12

   => Auxiliary Basis Set <=

  Basis Set: (6-31G(D) AUX)
    Blend: CC-PVDZ-JKFIT
    Number of shells: 210
    Number of basis function: 655
    Number of Cartesian functions: 655
    Spherical Harmonics?: false
    Max angular momentum: 3


  -Total Gradient:
     Atom            X                  Y                   Z
    ------   -----------------  -----------------  -----------------
       1        0.000000155398    -0.000000168623     0.000000153965
       2        0.000000093573    -0.000000026475    -0.000000014310
       3        0.000000019852     0.000000009284     0.000000087656
       4       -0.000000108914     0.000000064866    -0.000000021013
       5        0.000000127221     0.000000021370     0.000000030053
       6       -0.000000032788    -0.000000121255     0.000000039948
       7       -0.000000086088     0.000000059450    -0.000000019763
       8        0.000000188747    -0.000000104775    -0.000000028822
       9       -0.000000067288    -0.000000023031    -0.000000131401
      10       -0.000000029036    -0.000000014169    -0.000000096547
      11        0.000000060918     0.000000030698     0.000000187405
      12        0.000000107854    -0.000000004808     0.000000084085
      13       -0.000000343549     0.000000217270    -0.000000205566
      14       -0.000000009336     0.000000105228     0.000000028726
      15       -0.000000076565    -0.000000045032    -0.000000094412


*** tstop() called on wr86 at Thu Dec  6 16:10:16 2018
Module time:
	user time   =      16.15 seconds =       0.27 minutes
	system time =       0.59 seconds =       0.01 minutes
	total time  =          1 seconds =       0.02 minutes
Total time:
	user time   =      32.18 seconds =       0.54 minutes
	system time =       1.32 seconds =       0.02 minutes
	total time  =          3 seconds =       0.05 minutes

  Based on options and gradient (rms=1.88E-07), recommend projecting translations and projecting rotations.
hessian() will perform frequency computation by finite difference of analytic gradients.

-------------------------------------------------------------

  Using finite-differences of gradients to determine vibrational frequencies and 
  normal modes.  Resulting frequencies are only valid at stationary points.
	Generating geometries for use with 3-point formula.
	Displacement size will be 5.00e-03.
	Number of atoms is 15.
	Number of irreps is 1.
	Number of SALCS is 39.
	Translations projected? 1. Rotations projected? 1.
	Index of salcs per irrep:
	 1 :  0  1  2  3  4  5  6  7  8  9  10  11  12  13  14  15  16  17  18  19  20  21  22  23  24  25  26  27  28  29  30  31  32  33  34  35  36  37  38 
	Number of SALC's per irrep:
		 Irrep 1: 39
	Number of geometries (including reference) is 79.
	Number of displacements per irrep:
	  Irrep 1: 78

  //>>>>>>>>>>>>>>>>>>>>>>>>>>>>>>>>>>>//
  //    Loading displacement 1 of 79   //
  //<<<<<<<<<<<<<<<<<<<<<<<<<<<<<<<<<<<//
gradient() will perform analytic gradient computation.

*** tstart() called on wr86
*** at Thu Dec  6 16:10:16 2018

   => Loading Basis Set <=

    Name: 6-31G(D)
    Role: ORBITAL
    Keyword: BASIS
    atoms 1, 4, 8, 13               entry C          line   111 file /usr/local/hpc1/software_molmod/psi4/psi4conda/share/psi4/basis/6-31g_d_.gbs 
    atoms 2-3, 5-7, 9-10, 12, 14-15 entry H          line    44 file /usr/local/hpc1/software_molmod/psi4/psi4conda/share/psi4/basis/6-31g_d_.gbs 
    atoms 11                        entry O          line   145 file /usr/local/hpc1/software_molmod/psi4/psi4conda/share/psi4/basis/6-31g_d_.gbs 


         ---------------------------------------------------------
                                   SCF
            by Justin Turney, Rob Parrish, Andy Simmonett
                             and Daniel Smith
                              RHF Reference
                       16 Threads,  95367 MiB Core
         ---------------------------------------------------------

  ==> Geometry <==

    Molecular point group: c1
    Full point group: C1

    Geometry (in Angstrom), charge = 0, multiplicity = 1:

       Center              X                  Y                   Z               Mass       
    ------------   -----------------  -----------------  -----------------  -----------------
         C           -0.657988959090    -0.467946673469     0.775816797629    12.000000000000
         H           -0.325937170928    -1.500134180424     0.875235780258     1.007825032070
         H           -1.405881961011    -0.457363911176    -0.008339918168     1.007825032070
         C           -1.280987683587    -0.007264278743     2.092639672622    12.000000000000
         H           -1.650574482853     1.011404775740     2.015354355545     1.007825032070
         H           -0.558102609701    -0.034929227182     2.903636361868     1.007825032070
         H           -2.116741237775    -0.640658485624     2.373692304857     1.007825032070
         C            1.161586009278    -0.033860931650    -0.959766243980    12.000000000000
         H            1.491244100694    -1.069582391370    -0.886899040875     1.007825032070
         H            2.039782508062     0.576406087192    -1.162876181658     1.007825032070
         O            0.215644327126     0.111281354701    -1.988962111287    15.994914619560
         H            0.585966760494    -0.188384898444    -2.806803303737     1.007825032070
         C            0.526925887061     0.401480455250     0.349949940385    12.000000000000
         H            0.206364250586     1.435060442596     0.247574956320     1.007825032070
         H            1.293688707671     0.383138643015     1.122455223468     1.007825032070

  Running in c1 symmetry.

  Rotational constants: A =      0.42608  B =      0.07903  C =      0.07305 [cm^-1]
  Rotational constants: A =  12773.51328  B =   2369.23834  C =   2189.93531 [MHz]
  Nuclear repulsion =  188.670553139643431

  Charge       = 0
  Multiplicity = 1
  Electrons    = 42
  Nalpha       = 21
  Nbeta        = 21

  ==> Algorithm <==

  SCF Algorithm Type is DF.
  DIIS enabled.
  MOM disabled.
  Fractional occupation disabled.
  Guess Type is SAD.
  Energy threshold   = 1.00e-08
  Density threshold  = 1.00e-08
  Integral threshold = 0.00e+00

  ==> Primary Basis <==

  Basis Set: 6-31G(D)
    Blend: 6-31G(D)
    Number of shells: 50
    Number of basis function: 95
    Number of Cartesian functions: 95
    Spherical Harmonics?: false
    Max angular momentum: 2

   => Loading Basis Set <=

    Name: (6-31G(D) AUX)
    Role: JKFIT
    Keyword: DF_BASIS_SCF
    atoms 1, 4, 8, 13               entry C          line   121 file /usr/local/hpc1/software_molmod/psi4/psi4conda/share/psi4/basis/cc-pvdz-jkfit.gbs 
    atoms 2-3, 5-7, 9-10, 12, 14-15 entry H          line    51 file /usr/local/hpc1/software_molmod/psi4/psi4conda/share/psi4/basis/cc-pvdz-jkfit.gbs 
    atoms 11                        entry O          line   221 file /usr/local/hpc1/software_molmod/psi4/psi4conda/share/psi4/basis/cc-pvdz-jkfit.gbs 

  ==> Pre-Iterations <==

   -------------------------------------------------------
    Irrep   Nso     Nmo     Nalpha   Nbeta   Ndocc  Nsocc
   -------------------------------------------------------
     A         95      95       0       0       0       0
   -------------------------------------------------------
    Total      95      95      21      21      21       0
   -------------------------------------------------------

  ==> Integral Setup <==

  ==> DiskDFJK: Density-Fitted J/K Matrices <==

    J tasked:                  Yes
    K tasked:                  Yes
    wK tasked:                  No
    OpenMP threads:             16
    Integrals threads:          16
    Memory (MB):             71525
    Algorithm:                Core
    Integral Cache:           NONE
    Schwarz Cutoff:          1E-12
    Fitting Condition:       1E-12

   => Auxiliary Basis Set <=

  Basis Set: (6-31G(D) AUX)
    Blend: CC-PVDZ-JKFIT
    Number of shells: 210
    Number of basis function: 655
    Number of Cartesian functions: 655
    Spherical Harmonics?: false
    Max angular momentum: 3

  Minimum eigenvalue in the overlap matrix is 4.1130238554E-03.
  Using Symmetric Orthogonalization.

  SCF Guess: Superposition of Atomic Densities via on-the-fly atomic UHF.

  ==> Iterations <==

                           Total Energy        Delta E     RMS |[F,P]|

   @DF-RHF iter   0:  -233.76434081580018   -2.33764e+02   1.13472e-01 
   @DF-RHF iter   1:  -231.99802412983911    1.76632e+00   1.11097e-02 
   @DF-RHF iter   2:  -232.12513887998787   -1.27115e-01   5.52009e-03 DIIS
   @DF-RHF iter   3:  -232.14228679152708   -1.71479e-02   1.73188e-03 DIIS
   @DF-RHF iter   4:  -232.14510932218246   -2.82253e-03   3.82285e-04 DIIS
   @DF-RHF iter   5:  -232.14523691517573   -1.27593e-04   1.18982e-04 DIIS
   @DF-RHF iter   6:  -232.14525059282664   -1.36777e-05   2.72079e-05 DIIS
   @DF-RHF iter   7:  -232.14525179634336   -1.20352e-06   6.35558e-06 DIIS
   @DF-RHF iter   8:  -232.14525185913672   -6.27934e-08   2.48230e-06 DIIS
   @DF-RHF iter   9:  -232.14525186537978   -6.24306e-09   5.39059e-07 DIIS
   @DF-RHF iter  10:  -232.14525186576580   -3.86024e-10   8.97622e-08 DIIS
   @DF-RHF iter  11:  -232.14525186578322   -1.74225e-11   2.28500e-08 DIIS
   @DF-RHF iter  12:  -232.14525186578405   -8.24230e-13   7.24580e-09 DIIS

  ==> Post-Iterations <==

    Orbital Energies [Eh]
    ---------------------

    Doubly Occupied:                                                      

       1A    -20.553191     2A    -11.268147     3A    -11.212140  
       4A    -11.208585     5A    -11.204653     6A     -1.359909  
       7A     -1.064515     8A     -0.973573     9A     -0.855971  
      10A     -0.786349    11A     -0.705137    12A     -0.637881  
      13A     -0.610164    14A     -0.591135    15A     -0.545798  
      16A     -0.528179    17A     -0.512684    18A     -0.475089  
      19A     -0.464956    20A     -0.457015    21A     -0.430066  

    Virtual:                                                              

      22A      0.225079    23A      0.249612    24A      0.276032  
      25A      0.290224    26A      0.308023    27A      0.326782  
      28A      0.338982    29A      0.344586    30A      0.351871  
      31A      0.363379    32A      0.396739    33A      0.431272  
      34A      0.436272    35A      0.453556    36A      0.710630  
      37A      0.722998    38A      0.756304    39A      0.760356  
      40A      0.808349    41A      0.846056    42A      0.879792  
      43A      0.934391    44A      0.963401    45A      1.007419  
      46A      1.042893    47A      1.102531    48A      1.129609  
      49A      1.139880    50A      1.154258    51A      1.175725  
      52A      1.191762    53A      1.200594    54A      1.216259  
      55A      1.226589    56A      1.235664    57A      1.260849  
      58A      1.271937    59A      1.298259    60A      1.330299  
      61A      1.481332    62A      1.545193    63A      1.679717  
      64A      1.697666    65A      1.741821    66A      1.862986  
      67A      1.881151    68A      1.995214    69A      2.024820  
      70A      2.050095    71A      2.135014    72A      2.189654  
      73A      2.236613    74A      2.287383    75A      2.311375  
      76A      2.365333    77A      2.406937    78A      2.464228  
      79A      2.581363    80A      2.617318    81A      2.642398  
      82A      2.712459    83A      2.730357    84A      2.773089  
      85A      2.796582    86A      2.869815    87A      2.963076  
      88A      3.060880    89A      3.086625    90A      3.238097  
      91A      4.177649    92A      4.578848    93A      4.708095  
      94A      4.816326    95A      4.961286  

    Final Occupation by Irrep:
              A 
    DOCC [    21 ]

  Energy converged.

  @DF-RHF Final Energy:  -232.14525186578405

   => Energetics <=

    Nuclear Repulsion Energy =            188.6705531396434310
    One-Electron Energy =                -688.7413351082798272
    Two-Electron Energy =                 267.9255301028524059
    Total Energy =                       -232.1452518657840187



Properties will be evaluated at   0.000000,   0.000000,   0.000000 [a0]

Properties computed using the SCF density matrix

  Nuclear Dipole Moment: [e a0]
     X:    -0.4116      Y:    -0.4542      Z:     4.3713

  Electronic Dipole Moment: [e a0]
     X:     1.0041      Y:     0.2055      Z:    -4.5141

  Dipole Moment: [e a0]
     X:     0.5924      Y:    -0.2487      Z:    -0.1429     Total:     0.6582

  Dipole Moment: [D]
     X:     1.5058      Y:    -0.6322      Z:    -0.3631     Total:     1.6730


*** tstop() called on wr86 at Thu Dec  6 16:10:18 2018
Module time:
	user time   =      18.92 seconds =       0.32 minutes
	system time =       0.42 seconds =       0.01 minutes
	total time  =          2 seconds =       0.03 minutes
Total time:
	user time   =      51.25 seconds =       0.85 minutes
	system time =       1.74 seconds =       0.03 minutes
	total time  =          5 seconds =       0.08 minutes

*** tstart() called on wr86
*** at Thu Dec  6 16:10:18 2018


         ------------------------------------------------------------
                                   SCF GRAD                          
                          Rob Parrish, Justin Turney,                
                       Andy Simmonett, and Alex Sokolov              
         ------------------------------------------------------------

  ==> Geometry <==

    Molecular point group: c1
    Full point group: C1

    Geometry (in Angstrom), charge = 0, multiplicity = 1:

       Center              X                  Y                   Z               Mass       
    ------------   -----------------  -----------------  -----------------  -----------------
         C           -0.657988959090    -0.467946673469     0.775816797629    12.000000000000
         H           -0.325937170928    -1.500134180424     0.875235780258     1.007825032070
         H           -1.405881961011    -0.457363911176    -0.008339918168     1.007825032070
         C           -1.280987683587    -0.007264278743     2.092639672622    12.000000000000
         H           -1.650574482853     1.011404775740     2.015354355545     1.007825032070
         H           -0.558102609701    -0.034929227182     2.903636361868     1.007825032070
         H           -2.116741237775    -0.640658485624     2.373692304857     1.007825032070
         C            1.161586009278    -0.033860931650    -0.959766243980    12.000000000000
         H            1.491244100694    -1.069582391370    -0.886899040875     1.007825032070
         H            2.039782508062     0.576406087192    -1.162876181658     1.007825032070
         O            0.215644327126     0.111281354701    -1.988962111287    15.994914619560
         H            0.585966760494    -0.188384898444    -2.806803303737     1.007825032070
         C            0.526925887061     0.401480455250     0.349949940385    12.000000000000
         H            0.206364250586     1.435060442596     0.247574956320     1.007825032070
         H            1.293688707671     0.383138643015     1.122455223468     1.007825032070

  Nuclear repulsion =  188.670553139643431

  ==> Basis Set <==

  Basis Set: 6-31G(D)
    Blend: 6-31G(D)
    Number of shells: 50
    Number of basis function: 95
    Number of Cartesian functions: 95
    Spherical Harmonics?: false
    Max angular momentum: 2

  ==> DFJKGrad: Density-Fitted SCF Gradients <==

    Gradient:                    1
    J tasked:                  Yes
    K tasked:                  Yes
    wK tasked:                  No
    OpenMP threads:             16
    Integrals threads:          16
    Memory (MB):             71525
    Schwarz Cutoff:          0E+00
    Fitting Condition:       1E-12

   => Auxiliary Basis Set <=

  Basis Set: (6-31G(D) AUX)
    Blend: CC-PVDZ-JKFIT
    Number of shells: 210
    Number of basis function: 655
    Number of Cartesian functions: 655
    Spherical Harmonics?: false
    Max angular momentum: 3


  -Total Gradient:
     Atom            X                  Y                   Z
    ------   -----------------  -----------------  -----------------
       1       -0.000996054587     0.000055582176    -0.000102461591
       2        0.000145726329    -0.000131677388     0.000017609499
       3        0.000327724386    -0.000009700559     0.000240782885
       4        0.000194163737    -0.000028193262    -0.000074430441
       5        0.000008778027    -0.000005326326    -0.000019931792
       6       -0.000020993120     0.000015483525     0.000040223414
       7        0.000017449820    -0.000019780405    -0.000043223166
       8        0.000021278476     0.000011592325    -0.000016802020
       9       -0.000000556625     0.000001400622     0.000001981237
      10       -0.000000937717    -0.000000631848    -0.000002055973
      11        0.000002835367     0.000001392523     0.000001292492
      12        0.000000621985     0.000000081381     0.000000794981
      13        0.000281005356     0.000093422822    -0.000034568884
      14       -0.000016914307    -0.000012249414     0.000005156081
      15        0.000035872870     0.000028603829    -0.000014366718


*** tstop() called on wr86 at Thu Dec  6 16:10:19 2018
Module time:
	user time   =      15.62 seconds =       0.26 minutes
	system time =       0.65 seconds =       0.01 minutes
	total time  =          1 seconds =       0.02 minutes
Total time:
	user time   =      66.89 seconds =       1.11 minutes
	system time =       2.39 seconds =       0.04 minutes
	total time  =          6 seconds =       0.10 minutes

  //>>>>>>>>>>>>>>>>>>>>>>>>>>>>>>>>>>>//
  //    Loading displacement 2 of 79   //
  //<<<<<<<<<<<<<<<<<<<<<<<<<<<<<<<<<<<//
gradient() will perform analytic gradient computation.

*** tstart() called on wr86
*** at Thu Dec  6 16:10:19 2018

   => Loading Basis Set <=

    Name: 6-31G(D)
    Role: ORBITAL
    Keyword: BASIS
    atoms 1, 4, 8, 13               entry C          line   111 file /usr/local/hpc1/software_molmod/psi4/psi4conda/share/psi4/basis/6-31g_d_.gbs 
    atoms 2-3, 5-7, 9-10, 12, 14-15 entry H          line    44 file /usr/local/hpc1/software_molmod/psi4/psi4conda/share/psi4/basis/6-31g_d_.gbs 
    atoms 11                        entry O          line   145 file /usr/local/hpc1/software_molmod/psi4/psi4conda/share/psi4/basis/6-31g_d_.gbs 


         ---------------------------------------------------------
                                   SCF
            by Justin Turney, Rob Parrish, Andy Simmonett
                             and Daniel Smith
                              RHF Reference
                       16 Threads,  95367 MiB Core
         ---------------------------------------------------------

  ==> Geometry <==

    Molecular point group: c1
    Full point group: C1

    Geometry (in Angstrom), charge = 0, multiplicity = 1:

       Center              X                  Y                   Z               Mass       
    ------------   -----------------  -----------------  -----------------  -----------------
         C           -0.656659273812    -0.467876334283     0.775739765383    12.000000000000
         H           -0.326569740982    -1.500135647520     0.875103438128     1.007825032070
         H           -1.406254710593    -0.457089655172    -0.008464342602     1.007825032070
         C           -1.281408067015    -0.007170268412     2.092556685748    12.000000000000
         H           -1.650791645411     1.011576425411     2.015323203219     1.007825032070
         H           -0.558580589425    -0.035036087728     2.903597833374     1.007825032070
         H           -2.117302954913    -0.640422674223     2.373508520863     1.007825032070
         C            1.161356857564    -0.034015728354    -0.959694016810    12.000000000000
         H            1.490808694812    -1.069806728594    -0.886882483352     1.007825032070
         H            2.039685171936     0.576095445338    -1.162702143386     1.007825032070
         O            0.215509681890     0.111387029765    -1.988939974201    15.994914619560
         H            0.585826428578    -0.188290587122    -2.806779577704     1.007825032070
         C            0.526697172695     0.401351956346     0.350013637971    12.000000000000
         H            0.206343272634     1.435001903996     0.247694750068     1.007825032070
         H            1.293406687807     0.382803590709     1.122566895104     1.007825032070

  Running in c1 symmetry.

  Rotational constants: A =      0.42617  B =      0.07904  C =      0.07306 [cm^-1]
  Rotational constants: A =  12776.22554  B =   2369.41314  C =   2190.23177 [MHz]
  Nuclear repulsion =  188.680420048622267

  Charge       = 0
  Multiplicity = 1
  Electrons    = 42
  Nalpha       = 21
  Nbeta        = 21

  ==> Algorithm <==

  SCF Algorithm Type is DF.
  DIIS enabled.
  MOM disabled.
  Fractional occupation disabled.
  Guess Type is SAD.
  Energy threshold   = 1.00e-08
  Density threshold  = 1.00e-08
  Integral threshold = 0.00e+00

  ==> Primary Basis <==

  Basis Set: 6-31G(D)
    Blend: 6-31G(D)
    Number of shells: 50
    Number of basis function: 95
    Number of Cartesian functions: 95
    Spherical Harmonics?: false
    Max angular momentum: 2

   => Loading Basis Set <=

    Name: (6-31G(D) AUX)
    Role: JKFIT
    Keyword: DF_BASIS_SCF
    atoms 1, 4, 8, 13               entry C          line   121 file /usr/local/hpc1/software_molmod/psi4/psi4conda/share/psi4/basis/cc-pvdz-jkfit.gbs 
    atoms 2-3, 5-7, 9-10, 12, 14-15 entry H          line    51 file /usr/local/hpc1/software_molmod/psi4/psi4conda/share/psi4/basis/cc-pvdz-jkfit.gbs 
    atoms 11                        entry O          line   221 file /usr/local/hpc1/software_molmod/psi4/psi4conda/share/psi4/basis/cc-pvdz-jkfit.gbs 

  ==> Pre-Iterations <==

   -------------------------------------------------------
    Irrep   Nso     Nmo     Nalpha   Nbeta   Ndocc  Nsocc
   -------------------------------------------------------
     A         95      95       0       0       0       0
   -------------------------------------------------------
    Total      95      95      21      21      21       0
   -------------------------------------------------------

  ==> Integral Setup <==

  ==> DiskDFJK: Density-Fitted J/K Matrices <==

    J tasked:                  Yes
    K tasked:                  Yes
    wK tasked:                  No
    OpenMP threads:             16
    Integrals threads:          16
    Memory (MB):             71525
    Algorithm:                Core
    Integral Cache:           NONE
    Schwarz Cutoff:          1E-12
    Fitting Condition:       1E-12

   => Auxiliary Basis Set <=

  Basis Set: (6-31G(D) AUX)
    Blend: CC-PVDZ-JKFIT
    Number of shells: 210
    Number of basis function: 655
    Number of Cartesian functions: 655
    Spherical Harmonics?: false
    Max angular momentum: 3

  Minimum eigenvalue in the overlap matrix is 4.1110508765E-03.
  Using Symmetric Orthogonalization.

  SCF Guess: Superposition of Atomic Densities via on-the-fly atomic UHF.

  ==> Iterations <==

                           Total Energy        Delta E     RMS |[F,P]|

   @DF-RHF iter   0:  -234.38342643307101   -2.34383e+02   1.55389e-01 
   @DF-RHF iter   1:  -231.99287205071357    2.39055e+00   1.32568e-02 
   @DF-RHF iter   2:  -232.12482455258254   -1.31953e-01   5.92738e-03 DIIS
   @DF-RHF iter   3:  -232.14205331892779   -1.72288e-02   2.77444e-03 DIIS
   @DF-RHF iter   4:  -232.14506732387633   -3.01400e-03   3.86271e-04 DIIS
   @DF-RHF iter   5:  -232.14523493887705   -1.67615e-04   1.32566e-04 DIIS
   @DF-RHF iter   6:  -232.14525079253897   -1.58537e-05   2.96486e-05 DIIS
   @DF-RHF iter   7:  -232.14525180161877   -1.00908e-06   6.62613e-06 DIIS
   @DF-RHF iter   8:  -232.14525185925010   -5.76313e-08   2.05023e-06 DIIS
   @DF-RHF iter   9:  -232.14525186463180   -5.38171e-09   8.65538e-07 DIIS
   @DF-RHF iter  10:  -232.14525186524128   -6.09475e-10   1.29164e-07 DIIS
   @DF-RHF iter  11:  -232.14525186527229   -3.10081e-11   2.51453e-08 DIIS
   @DF-RHF iter  12:  -232.14525186527368   -1.39266e-12   9.22967e-09 DIIS

  ==> Post-Iterations <==

    Orbital Energies [Eh]
    ---------------------

    Doubly Occupied:                                                      

       1A    -20.553190     2A    -11.268157     3A    -11.212111  
       4A    -11.208600     5A    -11.204675     6A     -1.359913  
       7A     -1.064642     8A     -0.973486     9A     -0.856064  
      10A     -0.786307    11A     -0.705159    12A     -0.637873  
      13A     -0.610159    14A     -0.591164    15A     -0.545793  
      16A     -0.528132    17A     -0.512756    18A     -0.475104  
      19A     -0.464834    20A     -0.456990    21A     -0.430157  

    Virtual:                                                              

      22A      0.225081    23A      0.249618    24A      0.276016  
      25A      0.290197    26A      0.307959    27A      0.326768  
      28A      0.338986    29A      0.344638    30A      0.351744  
      31A      0.363397    32A      0.396649    33A      0.431358  
      34A      0.436491    35A      0.453527    36A      0.710796  
      37A      0.722955    38A      0.756427    39A      0.760116  
      40A      0.808319    41A      0.846065    42A      0.879802  
      43A      0.934324    44A      0.963860    45A      1.007549  
      46A      1.042819    47A      1.102415    48A      1.129636  
      49A      1.139974    50A      1.154168    51A      1.175666  
      52A      1.191844    53A      1.200629    54A      1.216256  
      55A      1.226609    56A      1.235528    57A      1.260886  
      58A      1.271650    59A      1.298182    60A      1.330230  
      61A      1.481502    62A      1.545240    63A      1.679709  
      64A      1.697666    65A      1.741880    66A      1.863358  
      67A      1.881119    68A      1.995117    69A      2.024749  
      70A      2.050153    71A      2.134792    72A      2.189553  
      73A      2.236795    74A      2.287857    75A      2.310947  
      76A      2.365824    77A      2.407046    78A      2.464080  
      79A      2.581288    80A      2.617243    81A      2.641559  
      82A      2.712576    83A      2.730930    84A      2.773068  
      85A      2.796579    86A      2.869952    87A      2.963266  
      88A      3.061261    89A      3.086842    90A      3.238150  
      91A      4.177655    92A      4.578947    93A      4.708089  
      94A      4.816346    95A      4.961340  

    Final Occupation by Irrep:
              A 
    DOCC [    21 ]

  Energy converged.

  @DF-RHF Final Energy:  -232.14525186527368

   => Energetics <=

    Nuclear Repulsion Energy =            188.6804200486222669
    One-Electron Energy =                -688.7608158308742077
    Two-Electron Energy =                 267.9351439169782338
    Total Energy =                       -232.1452518652736785



Properties will be evaluated at   0.000000,   0.000000,   0.000000 [a0]

Properties computed using the SCF density matrix

  Nuclear Dipole Moment: [e a0]
     X:    -0.4147      Y:    -0.4544      Z:     4.3712

  Electronic Dipole Moment: [e a0]
     X:     1.0075      Y:     0.2055      Z:    -4.5141

  Dipole Moment: [e a0]
     X:     0.5928      Y:    -0.2489      Z:    -0.1429     Total:     0.6586

  Dipole Moment: [D]
     X:     1.5068      Y:    -0.6327      Z:    -0.3631     Total:     1.6741


*** tstop() called on wr86 at Thu Dec  6 16:10:21 2018
Module time:
	user time   =      17.83 seconds =       0.30 minutes
	system time =       0.54 seconds =       0.01 minutes
	total time  =          2 seconds =       0.03 minutes
Total time:
	user time   =      84.83 seconds =       1.41 minutes
	system time =       2.94 seconds =       0.05 minutes
	total time  =          8 seconds =       0.13 minutes

*** tstart() called on wr86
*** at Thu Dec  6 16:10:21 2018


         ------------------------------------------------------------
                                   SCF GRAD                          
                          Rob Parrish, Justin Turney,                
                       Andy Simmonett, and Alex Sokolov              
         ------------------------------------------------------------

  ==> Geometry <==

    Molecular point group: c1
    Full point group: C1

    Geometry (in Angstrom), charge = 0, multiplicity = 1:

       Center              X                  Y                   Z               Mass       
    ------------   -----------------  -----------------  -----------------  -----------------
         C           -0.656659273812    -0.467876334283     0.775739765383    12.000000000000
         H           -0.326569740982    -1.500135647520     0.875103438128     1.007825032070
         H           -1.406254710593    -0.457089655172    -0.008464342602     1.007825032070
         C           -1.281408067015    -0.007170268412     2.092556685748    12.000000000000
         H           -1.650791645411     1.011576425411     2.015323203219     1.007825032070
         H           -0.558580589425    -0.035036087728     2.903597833374     1.007825032070
         H           -2.117302954913    -0.640422674223     2.373508520863     1.007825032070
         C            1.161356857564    -0.034015728354    -0.959694016810    12.000000000000
         H            1.490808694812    -1.069806728594    -0.886882483352     1.007825032070
         H            2.039685171936     0.576095445338    -1.162702143386     1.007825032070
         O            0.215509681890     0.111387029765    -1.988939974201    15.994914619560
         H            0.585826428578    -0.188290587122    -2.806779577704     1.007825032070
         C            0.526697172695     0.401351956346     0.350013637971    12.000000000000
         H            0.206343272634     1.435001903996     0.247694750068     1.007825032070
         H            1.293406687807     0.382803590709     1.122566895104     1.007825032070

  Nuclear repulsion =  188.680420048622267

  ==> Basis Set <==

  Basis Set: 6-31G(D)
    Blend: 6-31G(D)
    Number of shells: 50
    Number of basis function: 95
    Number of Cartesian functions: 95
    Spherical Harmonics?: false
    Max angular momentum: 2

  ==> DFJKGrad: Density-Fitted SCF Gradients <==

    Gradient:                    1
    J tasked:                  Yes
    K tasked:                  Yes
    wK tasked:                  No
    OpenMP threads:             16
    Integrals threads:          16
    Memory (MB):             71525
    Schwarz Cutoff:          0E+00
    Fitting Condition:       1E-12

   => Auxiliary Basis Set <=

  Basis Set: (6-31G(D) AUX)
    Blend: CC-PVDZ-JKFIT
    Number of shells: 210
    Number of basis function: 655
    Number of Cartesian functions: 655
    Spherical Harmonics?: false
    Max angular momentum: 3


  -Total Gradient:
     Atom            X                  Y                   Z
    ------   -----------------  -----------------  -----------------
       1        0.000996302970    -0.000055028271     0.000101302119
       2       -0.000145337621     0.000131567098    -0.000017576644
       3       -0.000326909688     0.000009736512    -0.000239359335
       4       -0.000194284539     0.000028207533     0.000074188393
       5       -0.000008512701     0.000005344720     0.000019960265
       6        0.000020917020    -0.000015710072    -0.000040103061
       7       -0.000017597530     0.000019903410     0.000043131921
       8       -0.000020962303    -0.000011845189     0.000016785747
       9        0.000000436062    -0.000001453254    -0.000002234045
      10        0.000000882236     0.000000608961     0.000001860030
      11       -0.000002679700    -0.000001298737    -0.000000961544
      12       -0.000000441866    -0.000000103705    -0.000000594383
      13       -0.000282637353    -0.000093659526     0.000034541964
      14        0.000016921366     0.000012463472    -0.000005110045
      15       -0.000036096353    -0.000028732950     0.000014168622


*** tstop() called on wr86 at Thu Dec  6 16:10:22 2018
Module time:
	user time   =      14.99 seconds =       0.25 minutes
	system time =       0.63 seconds =       0.01 minutes
	total time  =          1 seconds =       0.02 minutes
Total time:
	user time   =      99.84 seconds =       1.66 minutes
	system time =       3.57 seconds =       0.06 minutes
	total time  =          9 seconds =       0.15 minutes

  //>>>>>>>>>>>>>>>>>>>>>>>>>>>>>>>>>>>//
  //    Loading displacement 3 of 79   //
  //<<<<<<<<<<<<<<<<<<<<<<<<<<<<<<<<<<<//
gradient() will perform analytic gradient computation.

*** tstart() called on wr86
*** at Thu Dec  6 16:10:22 2018

   => Loading Basis Set <=

    Name: 6-31G(D)
    Role: ORBITAL
    Keyword: BASIS
    atoms 1, 4, 8, 13               entry C          line   111 file /usr/local/hpc1/software_molmod/psi4/psi4conda/share/psi4/basis/6-31g_d_.gbs 
    atoms 2-3, 5-7, 9-10, 12, 14-15 entry H          line    44 file /usr/local/hpc1/software_molmod/psi4/psi4conda/share/psi4/basis/6-31g_d_.gbs 
    atoms 11                        entry O          line   145 file /usr/local/hpc1/software_molmod/psi4/psi4conda/share/psi4/basis/6-31g_d_.gbs 


         ---------------------------------------------------------
                                   SCF
            by Justin Turney, Rob Parrish, Andy Simmonett
                             and Daniel Smith
                              RHF Reference
                       16 Threads,  95367 MiB Core
         ---------------------------------------------------------

  ==> Geometry <==

    Molecular point group: c1
    Full point group: C1

    Geometry (in Angstrom), charge = 0, multiplicity = 1:

       Center              X                  Y                   Z               Mass       
    ------------   -----------------  -----------------  -----------------  -----------------
         C           -0.657324116451    -0.468579359305     0.775784170584    12.000000000000
         H           -0.326384441607    -1.499955108970     0.875189205063     1.007825032070
         H           -1.406113352781    -0.456969953681    -0.008396682528     1.007825032070
         C           -1.281206794178    -0.006943066545     2.092597759530    12.000000000000
         H           -1.650608324805     1.011794123204     2.015324815237     1.007825032070
         H           -0.558353123466    -0.034757125751     2.903617333401     1.007825032070
         H           -2.117083118487    -0.640194063691     2.373607985772     1.007825032070
         C            1.161461546870    -0.033904783535    -0.959729217626    12.000000000000
         H            1.490931455250    -1.069687109305    -0.886876096704     1.007825032070
         H            2.039774126291     0.576209544682    -1.162795921058     1.007825032070
         O            0.215579456947     0.111431854173    -1.988952420217    15.994914619560
         H            0.585874774947    -0.188281235575    -2.806788728752     1.007825032070
         C            0.526836856184     0.401519075220     0.349976722102    12.000000000000
         H            0.206463979940     1.435159003680     0.247616065289     1.007825032070
         H            1.293571199593     0.383021202650     1.122506542706     1.007825032070

  Running in c1 symmetry.

  Rotational constants: A =      0.42603  B =      0.07903  C =      0.07305 [cm^-1]
  Rotational constants: A =  12772.06278  B =   2369.24019  C =   2190.06677 [MHz]
  Nuclear repulsion =  188.669577601520388

  Charge       = 0
  Multiplicity = 1
  Electrons    = 42
  Nalpha       = 21
  Nbeta        = 21

  ==> Algorithm <==

  SCF Algorithm Type is DF.
  DIIS enabled.
  MOM disabled.
  Fractional occupation disabled.
  Guess Type is SAD.
  Energy threshold   = 1.00e-08
  Density threshold  = 1.00e-08
  Integral threshold = 0.00e+00

  ==> Primary Basis <==

  Basis Set: 6-31G(D)
    Blend: 6-31G(D)
    Number of shells: 50
    Number of basis function: 95
    Number of Cartesian functions: 95
    Spherical Harmonics?: false
    Max angular momentum: 2

   => Loading Basis Set <=

    Name: (6-31G(D) AUX)
    Role: JKFIT
    Keyword: DF_BASIS_SCF
    atoms 1, 4, 8, 13               entry C          line   121 file /usr/local/hpc1/software_molmod/psi4/psi4conda/share/psi4/basis/cc-pvdz-jkfit.gbs 
    atoms 2-3, 5-7, 9-10, 12, 14-15 entry H          line    51 file /usr/local/hpc1/software_molmod/psi4/psi4conda/share/psi4/basis/cc-pvdz-jkfit.gbs 
    atoms 11                        entry O          line   221 file /usr/local/hpc1/software_molmod/psi4/psi4conda/share/psi4/basis/cc-pvdz-jkfit.gbs 

  ==> Pre-Iterations <==

   -------------------------------------------------------
    Irrep   Nso     Nmo     Nalpha   Nbeta   Ndocc  Nsocc
   -------------------------------------------------------
     A         95      95       0       0       0       0
   -------------------------------------------------------
    Total      95      95      21      21      21       0
   -------------------------------------------------------

  ==> Integral Setup <==

  ==> DiskDFJK: Density-Fitted J/K Matrices <==

    J tasked:                  Yes
    K tasked:                  Yes
    wK tasked:                  No
    OpenMP threads:             16
    Integrals threads:          16
    Memory (MB):             71525
    Algorithm:                Core
    Integral Cache:           NONE
    Schwarz Cutoff:          1E-12
    Fitting Condition:       1E-12

   => Auxiliary Basis Set <=

  Basis Set: (6-31G(D) AUX)
    Blend: CC-PVDZ-JKFIT
    Number of shells: 210
    Number of basis function: 655
    Number of Cartesian functions: 655
    Spherical Harmonics?: false
    Max angular momentum: 3

  Minimum eigenvalue in the overlap matrix is 4.1132503553E-03.
  Using Symmetric Orthogonalization.

  SCF Guess: Superposition of Atomic Densities via on-the-fly atomic UHF.

  ==> Iterations <==

                           Total Energy        Delta E     RMS |[F,P]|

   @DF-RHF iter   0:  -233.75719006403705   -2.33757e+02   1.13921e-01 
   @DF-RHF iter   1:  -232.00685455763497    1.75034e+00   1.25606e-02 
   @DF-RHF iter   2:  -232.12551092648300   -1.18656e-01   6.75375e-03 DIIS
   @DF-RHF iter   3:  -232.14195526246982   -1.64443e-02   1.73775e-03 DIIS
   @DF-RHF iter   4:  -232.14509095275287   -3.13569e-03   3.52636e-04 DIIS
   @DF-RHF iter   5:  -232.14523326656806   -1.42314e-04   1.58357e-04 DIIS
   @DF-RHF iter   6:  -232.14525005924401   -1.67927e-05   2.79063e-05 DIIS
   @DF-RHF iter   7:  -232.14525169948715   -1.64024e-06   8.37655e-06 DIIS
   @DF-RHF iter   8:  -232.14525181822074   -1.18734e-07   2.29523e-06 DIIS
   @DF-RHF iter   9:  -232.14525182549278   -7.27204e-09   1.02018e-06 DIIS
   @DF-RHF iter  10:  -232.14525182619178   -6.99004e-10   1.79964e-07 DIIS
   @DF-RHF iter  11:  -232.14525182622396   -3.21734e-11   2.95563e-08 DIIS
   @DF-RHF iter  12:  -232.14525182622594   -1.98952e-12   7.29682e-09 DIIS

  ==> Post-Iterations <==

    Orbital Energies [Eh]
    ---------------------

    Doubly Occupied:                                                      

       1A    -20.553181     2A    -11.268135     3A    -11.212134  
       4A    -11.208560     5A    -11.204665     6A     -1.359901  
       7A     -1.064500     8A     -0.973494     9A     -0.855981  
      10A     -0.786396    11A     -0.705140    12A     -0.637853  
      13A     -0.610219    14A     -0.591071    15A     -0.545787  
      16A     -0.528094    17A     -0.512704    18A     -0.475098  
      19A     -0.465027    20A     -0.456980    21A     -0.430066  

    Virtual:                                                              

      22A      0.225087    23A      0.249631    24A      0.276025  
      25A      0.290276    26A      0.308012    27A      0.326768  
      28A      0.338985    29A      0.344624    30A      0.351839  
      31A      0.363428    32A      0.396655    33A      0.431288  
      34A      0.436312    35A      0.453455    36A      0.710733  
      37A      0.723056    38A      0.756307    39A      0.760236  
      40A      0.808318    41A      0.846069    42A      0.879790  
      43A      0.934303    44A      0.963319    45A      1.007465  
      46A      1.042878    47A      1.102470    48A      1.129639  
      49A      1.140029    50A      1.154334    51A      1.175705  
      52A      1.191814    53A      1.200636    54A      1.216355  
      55A      1.226715    56A      1.235816    57A      1.260954  
      58A      1.271813    59A      1.298207    60A      1.330251  
      61A      1.481495    62A      1.545118    63A      1.679670  
      64A      1.697613    65A      1.741825    66A      1.863108  
      67A      1.881170    68A      1.995202    69A      2.024873  
      70A      2.050137    71A      2.134965    72A      2.189671  
      73A      2.236631    74A      2.287543    75A      2.310768  
      76A      2.365393    77A      2.406996    78A      2.464183  
      79A      2.581267    80A      2.617406    81A      2.642262  
      82A      2.712389    83A      2.730720    84A      2.772998  
      85A      2.796502    86A      2.869787    87A      2.962930  
      88A      3.060666    89A      3.086716    90A      3.238121  
      91A      4.177658    92A      4.578820    93A      4.708091  
      94A      4.816348    95A      4.961302  

    Final Occupation by Irrep:
              A 
    DOCC [    21 ]

  Energy converged.

  @DF-RHF Final Energy:  -232.14525182622594

   => Energetics <=

    Nuclear Repulsion Energy =            188.6695776015203876
    One-Electron Energy =                -688.7396835520660261
    Two-Electron Energy =                 267.9248541243197224
    Total Energy =                       -232.1452518262259446



Properties will be evaluated at   0.000000,   0.000000,   0.000000 [a0]

Properties computed using the SCF density matrix

  Nuclear Dipole Moment: [e a0]
     X:    -0.4133      Y:    -0.4529      Z:     4.3712

  Electronic Dipole Moment: [e a0]
     X:     1.0059      Y:     0.2037      Z:    -4.5140

  Dipole Moment: [e a0]
     X:     0.5926      Y:    -0.2492      Z:    -0.1428     Total:     0.6586

  Dipole Moment: [D]
     X:     1.5064      Y:    -0.6333      Z:    -0.3629     Total:     1.6739


*** tstop() called on wr86 at Thu Dec  6 16:10:23 2018
Module time:
	user time   =      17.31 seconds =       0.29 minutes
	system time =       0.56 seconds =       0.01 minutes
	total time  =          1 seconds =       0.02 minutes
Total time:
	user time   =     117.27 seconds =       1.95 minutes
	system time =       4.13 seconds =       0.07 minutes
	total time  =         10 seconds =       0.17 minutes

*** tstart() called on wr86
*** at Thu Dec  6 16:10:23 2018


         ------------------------------------------------------------
                                   SCF GRAD                          
                          Rob Parrish, Justin Turney,                
                       Andy Simmonett, and Alex Sokolov              
         ------------------------------------------------------------

  ==> Geometry <==

    Molecular point group: c1
    Full point group: C1

    Geometry (in Angstrom), charge = 0, multiplicity = 1:

       Center              X                  Y                   Z               Mass       
    ------------   -----------------  -----------------  -----------------  -----------------
         C           -0.657324116451    -0.468579359305     0.775784170584    12.000000000000
         H           -0.326384441607    -1.499955108970     0.875189205063     1.007825032070
         H           -1.406113352781    -0.456969953681    -0.008396682528     1.007825032070
         C           -1.281206794178    -0.006943066545     2.092597759530    12.000000000000
         H           -1.650608324805     1.011794123204     2.015324815237     1.007825032070
         H           -0.558353123466    -0.034757125751     2.903617333401     1.007825032070
         H           -2.117083118487    -0.640194063691     2.373607985772     1.007825032070
         C            1.161461546870    -0.033904783535    -0.959729217626    12.000000000000
         H            1.490931455250    -1.069687109305    -0.886876096704     1.007825032070
         H            2.039774126291     0.576209544682    -1.162795921058     1.007825032070
         O            0.215579456947     0.111431854173    -1.988952420217    15.994914619560
         H            0.585874774947    -0.188281235575    -2.806788728752     1.007825032070
         C            0.526836856184     0.401519075220     0.349976722102    12.000000000000
         H            0.206463979940     1.435159003680     0.247616065289     1.007825032070
         H            1.293571199593     0.383021202650     1.122506542706     1.007825032070

  Nuclear repulsion =  188.669577601520359

  ==> Basis Set <==

  Basis Set: 6-31G(D)
    Blend: 6-31G(D)
    Number of shells: 50
    Number of basis function: 95
    Number of Cartesian functions: 95
    Spherical Harmonics?: false
    Max angular momentum: 2

  ==> DFJKGrad: Density-Fitted SCF Gradients <==

    Gradient:                    1
    J tasked:                  Yes
    K tasked:                  Yes
    wK tasked:                  No
    OpenMP threads:             16
    Integrals threads:          16
    Memory (MB):             71525
    Schwarz Cutoff:          0E+00
    Fitting Condition:       1E-12

   => Auxiliary Basis Set <=

  Basis Set: (6-31G(D) AUX)
    Blend: CC-PVDZ-JKFIT
    Number of shells: 210
    Number of basis function: 655
    Number of Cartesian functions: 655
    Spherical Harmonics?: false
    Max angular momentum: 3


  -Total Gradient:
     Atom            X                  Y                   Z
    ------   -----------------  -----------------  -----------------
       1        0.000108561646    -0.001043107217     0.000016396191
       2       -0.000141547189     0.000507844659    -0.000045192551
       3       -0.000024322871     0.000104941541    -0.000018051374
       4       -0.000036584833     0.000183289953     0.000062639564
       5       -0.000024087498     0.000016999706     0.000056624273
       6        0.000003017551    -0.000001951286    -0.000005618517
       7        0.000014093552    -0.000013232844    -0.000035074015
       8       -0.000019610294    -0.000018981247    -0.000000640422
       9       -0.000002219275    -0.000000398493     0.000000958761
      10       -0.000004206201     0.000001324043     0.000008092141
      11        0.000001961809     0.000000449547     0.000000294698
      12       -0.000000199182    -0.000000593535    -0.000000027924
      13        0.000078788113     0.000231103449    -0.000025756400
      14        0.000051028836     0.000035557291    -0.000015827266
      15       -0.000004674164    -0.000003245567     0.000001182840


*** tstop() called on wr86 at Thu Dec  6 16:10:24 2018
Module time:
	user time   =      15.00 seconds =       0.25 minutes
	system time =       0.54 seconds =       0.01 minutes
	total time  =          1 seconds =       0.02 minutes
Total time:
	user time   =     132.29 seconds =       2.20 minutes
	system time =       4.67 seconds =       0.08 minutes
	total time  =         11 seconds =       0.18 minutes

  //>>>>>>>>>>>>>>>>>>>>>>>>>>>>>>>>>>>//
  //    Loading displacement 4 of 79   //
  //<<<<<<<<<<<<<<<<<<<<<<<<<<<<<<<<<<<//
gradient() will perform analytic gradient computation.

*** tstart() called on wr86
*** at Thu Dec  6 16:10:24 2018

   => Loading Basis Set <=

    Name: 6-31G(D)
    Role: ORBITAL
    Keyword: BASIS
    atoms 1, 4, 8, 13               entry C          line   111 file /usr/local/hpc1/software_molmod/psi4/psi4conda/share/psi4/basis/6-31g_d_.gbs 
    atoms 2-3, 5-7, 9-10, 12, 14-15 entry H          line    44 file /usr/local/hpc1/software_molmod/psi4/psi4conda/share/psi4/basis/6-31g_d_.gbs 
    atoms 11                        entry O          line   145 file /usr/local/hpc1/software_molmod/psi4/psi4conda/share/psi4/basis/6-31g_d_.gbs 


         ---------------------------------------------------------
                                   SCF
            by Justin Turney, Rob Parrish, Andy Simmonett
                             and Daniel Smith
                              RHF Reference
                       16 Threads,  95367 MiB Core
         ---------------------------------------------------------

  ==> Geometry <==

    Molecular point group: c1
    Full point group: C1

    Geometry (in Angstrom), charge = 0, multiplicity = 1:

       Center              X                  Y                   Z               Mass       
    ------------   -----------------  -----------------  -----------------  -----------------
         C           -0.657324116451    -0.467243648447     0.775772392429    12.000000000000
         H           -0.326122470303    -1.500314718974     0.875150013323     1.007825032070
         H           -1.406023318823    -0.457483612667    -0.008407578242     1.007825032070
         C           -1.281188956424    -0.007491480611     2.092598598840    12.000000000000
         H           -1.650757803459     1.011187077946     2.015352743527     1.007825032070
         H           -0.558330075660    -0.035208189159     2.903616861841     1.007825032070
         H           -2.116961074201    -0.640887096156     2.373592839949     1.007825032070
         C            1.161481319972    -0.033971876469    -0.959731043164    12.000000000000
         H            1.491121340256    -1.069702010658    -0.886905427524     1.007825032070
         H            2.039693553707     0.576291987849    -1.162782403986     1.007825032070
         O            0.215574552069     0.111236530293    -1.988949665271    15.994914619560
         H            0.585918414125    -0.188394249991    -2.806794152690     1.007825032070
         C            0.526786203572     0.401313336376     0.349986856254    12.000000000000
         H            0.206243543280     1.434903342912     0.247653641099     1.007825032070
         H            1.293524195885     0.382921031074     1.122515575866     1.007825032070

  Running in c1 symmetry.

  Rotational constants: A =      0.42622  B =      0.07904  C =      0.07305 [cm^-1]
  Rotational constants: A =  12777.67582  B =   2369.41119  C =   2190.10042 [MHz]
  Nuclear repulsion =  188.681390991567810

  Charge       = 0
  Multiplicity = 1
  Electrons    = 42
  Nalpha       = 21
  Nbeta        = 21

  ==> Algorithm <==

  SCF Algorithm Type is DF.
  DIIS enabled.
  MOM disabled.
  Fractional occupation disabled.
  Guess Type is SAD.
  Energy threshold   = 1.00e-08
  Density threshold  = 1.00e-08
  Integral threshold = 0.00e+00

  ==> Primary Basis <==

  Basis Set: 6-31G(D)
    Blend: 6-31G(D)
    Number of shells: 50
    Number of basis function: 95
    Number of Cartesian functions: 95
    Spherical Harmonics?: false
    Max angular momentum: 2

   => Loading Basis Set <=

    Name: (6-31G(D) AUX)
    Role: JKFIT
    Keyword: DF_BASIS_SCF
    atoms 1, 4, 8, 13               entry C          line   121 file /usr/local/hpc1/software_molmod/psi4/psi4conda/share/psi4/basis/cc-pvdz-jkfit.gbs 
    atoms 2-3, 5-7, 9-10, 12, 14-15 entry H          line    51 file /usr/local/hpc1/software_molmod/psi4/psi4conda/share/psi4/basis/cc-pvdz-jkfit.gbs 
    atoms 11                        entry O          line   221 file /usr/local/hpc1/software_molmod/psi4/psi4conda/share/psi4/basis/cc-pvdz-jkfit.gbs 

  ==> Pre-Iterations <==

   -------------------------------------------------------
    Irrep   Nso     Nmo     Nalpha   Nbeta   Ndocc  Nsocc
   -------------------------------------------------------
     A         95      95       0       0       0       0
   -------------------------------------------------------
    Total      95      95      21      21      21       0
   -------------------------------------------------------

  ==> Integral Setup <==

  ==> DiskDFJK: Density-Fitted J/K Matrices <==

    J tasked:                  Yes
    K tasked:                  Yes
    wK tasked:                  No
    OpenMP threads:             16
    Integrals threads:          16
    Memory (MB):             71525
    Algorithm:                Core
    Integral Cache:           NONE
    Schwarz Cutoff:          1E-12
    Fitting Condition:       1E-12

   => Auxiliary Basis Set <=

  Basis Set: (6-31G(D) AUX)
    Blend: CC-PVDZ-JKFIT
    Number of shells: 210
    Number of basis function: 655
    Number of Cartesian functions: 655
    Spherical Harmonics?: false
    Max angular momentum: 3

  Minimum eigenvalue in the overlap matrix is 4.1108293199E-03.
  Using Symmetric Orthogonalization.

  SCF Guess: Superposition of Atomic Densities via on-the-fly atomic UHF.

  ==> Iterations <==

                           Total Energy        Delta E     RMS |[F,P]|

   @DF-RHF iter   0:  -233.70690571783967   -2.33707e+02   1.82236e-01 
   @DF-RHF iter   1:  -231.99609436040816    1.71081e+00   1.89896e-02 
   @DF-RHF iter   2:  -232.12415603576812   -1.28062e-01   7.68821e-03 DIIS
   @DF-RHF iter   3:  -232.14187780880673   -1.77218e-02   3.00504e-03 DIIS
   @DF-RHF iter   4:  -232.14509028389523   -3.21248e-03   3.75229e-04 DIIS
   @DF-RHF iter   5:  -232.14522973971074   -1.39456e-04   1.11661e-04 DIIS
   @DF-RHF iter   6:  -232.14524945239873   -1.97127e-05   5.08034e-05 DIIS
   @DF-RHF iter   7:  -232.14525158676418   -2.13437e-06   1.55603e-05 DIIS
   @DF-RHF iter   8:  -232.14525180775544   -2.20991e-07   5.12029e-06 DIIS
   @DF-RHF iter   9:  -232.14525182693507   -1.91796e-08   7.86539e-07 DIIS
   @DF-RHF iter  10:  -232.14525182799065   -1.05558e-09   1.85346e-07 DIIS
   @DF-RHF iter  11:  -232.14525182802163   -3.09797e-11   4.82983e-08 DIIS
   @DF-RHF iter  12:  -232.14525182802322   -1.59162e-12   1.32584e-08 DIIS
   @DF-RHF iter  13:  -232.14525182802345   -2.27374e-13   2.56535e-09 DIIS

  ==> Post-Iterations <==

    Orbital Energies [Eh]
    ---------------------

    Doubly Occupied:                                                      

       1A    -20.553200     2A    -11.268169     3A    -11.212118  
       4A    -11.208625     5A    -11.204664     6A     -1.359921  
       7A     -1.064656     8A     -0.973564     9A     -0.856053  
      10A     -0.786259    11A     -0.705156    12A     -0.637901  
      13A     -0.610104    14A     -0.591228    15A     -0.545804  
      16A     -0.528217    17A     -0.512735    18A     -0.475090  
      19A     -0.464773    20A     -0.457020    21A     -0.430156  

    Virtual:                                                              

      22A      0.225074    23A      0.249600    24A      0.276024  
      25A      0.290144    26A      0.307970    27A      0.326781  
      28A      0.338983    29A      0.344601    30A      0.351776  
      31A      0.363348    32A      0.396733    33A      0.431344  
      34A      0.436452    35A      0.453626    36A      0.710693  
      37A      0.722897    38A      0.756422    39A      0.760237  
      40A      0.808350    41A      0.846052    42A      0.879804  
      43A      0.934412    44A      0.963943    45A      1.007502  
      46A      1.042834    47A      1.102476    48A      1.129606  
      49A      1.139823    50A      1.154095    51A      1.175686  
      52A      1.191792    53A      1.200587    54A      1.216159  
      55A      1.226479    56A      1.235382    57A      1.260781  
      58A      1.271773    59A      1.298234    60A      1.330277  
      61A      1.481338    62A      1.545315    63A      1.679757  
      64A      1.697718    65A      1.741877    66A      1.863237  
      67A      1.881101    68A      1.995129    69A      2.024696  
      70A      2.050110    71A      2.134842    72A      2.189536  
      73A      2.236774    74A      2.287695    75A      2.311559  
      76A      2.365766    77A      2.406986    78A      2.464125  
      79A      2.581384    80A      2.617156    81A      2.641691  
      82A      2.712645    83A      2.730572    84A      2.773159  
      85A      2.796656    86A      2.869981    87A      2.963412  
      88A      3.061475    89A      3.086751    90A      3.238126  
      91A      4.177646    92A      4.578976    93A      4.708093  
      94A      4.816324    95A      4.961325  

    Final Occupation by Irrep:
              A 
    DOCC [    21 ]

  Energy converged.

  @DF-RHF Final Energy:  -232.14525182802345

   => Energetics <=

    Nuclear Repulsion Energy =            188.6813909915678096
    One-Electron Energy =                -688.7624572697200165
    Two-Electron Energy =                 267.9358144501287597
    Total Energy =                       -232.1452518280234472



Properties will be evaluated at   0.000000,   0.000000,   0.000000 [a0]

Properties computed using the SCF density matrix

  Nuclear Dipole Moment: [e a0]
     X:    -0.4130      Y:    -0.4557      Z:     4.3712

  Electronic Dipole Moment: [e a0]
     X:     1.0057      Y:     0.2072      Z:    -4.5142

  Dipole Moment: [e a0]
     X:     0.5926      Y:    -0.2485      Z:    -0.1429     Total:     0.6583

  Dipole Moment: [D]
     X:     1.5063      Y:    -0.6316      Z:    -0.3633     Total:     1.6732


*** tstop() called on wr86 at Thu Dec  6 16:10:26 2018
Module time:
	user time   =      17.78 seconds =       0.30 minutes
	system time =       0.55 seconds =       0.01 minutes
	total time  =          2 seconds =       0.03 minutes
Total time:
	user time   =     150.18 seconds =       2.50 minutes
	system time =       5.23 seconds =       0.09 minutes
	total time  =         13 seconds =       0.22 minutes

*** tstart() called on wr86
*** at Thu Dec  6 16:10:26 2018


         ------------------------------------------------------------
                                   SCF GRAD                          
                          Rob Parrish, Justin Turney,                
                       Andy Simmonett, and Alex Sokolov              
         ------------------------------------------------------------

  ==> Geometry <==

    Molecular point group: c1
    Full point group: C1

    Geometry (in Angstrom), charge = 0, multiplicity = 1:

       Center              X                  Y                   Z               Mass       
    ------------   -----------------  -----------------  -----------------  -----------------
         C           -0.657324116451    -0.467243648447     0.775772392429    12.000000000000
         H           -0.326122470303    -1.500314718974     0.875150013323     1.007825032070
         H           -1.406023318823    -0.457483612667    -0.008407578242     1.007825032070
         C           -1.281188956424    -0.007491480611     2.092598598840    12.000000000000
         H           -1.650757803459     1.011187077946     2.015352743527     1.007825032070
         H           -0.558330075660    -0.035208189159     2.903616861841     1.007825032070
         H           -2.116961074201    -0.640887096156     2.373592839949     1.007825032070
         C            1.161481319972    -0.033971876469    -0.959731043164    12.000000000000
         H            1.491121340256    -1.069702010658    -0.886905427524     1.007825032070
         H            2.039693553707     0.576291987849    -1.162782403986     1.007825032070
         O            0.215574552069     0.111236530293    -1.988949665271    15.994914619560
         H            0.585918414125    -0.188394249991    -2.806794152690     1.007825032070
         C            0.526786203572     0.401313336376     0.349986856254    12.000000000000
         H            0.206243543280     1.434903342912     0.247653641099     1.007825032070
         H            1.293524195885     0.382921031074     1.122515575866     1.007825032070

  Nuclear repulsion =  188.681390991567810

  ==> Basis Set <==

  Basis Set: 6-31G(D)
    Blend: 6-31G(D)
    Number of shells: 50
    Number of basis function: 95
    Number of Cartesian functions: 95
    Spherical Harmonics?: false
    Max angular momentum: 2

  ==> DFJKGrad: Density-Fitted SCF Gradients <==

    Gradient:                    1
    J tasked:                  Yes
    K tasked:                  Yes
    wK tasked:                  No
    OpenMP threads:             16
    Integrals threads:          16
    Memory (MB):             71525
    Schwarz Cutoff:          0E+00
    Fitting Condition:       1E-12

   => Auxiliary Basis Set <=

  Basis Set: (6-31G(D) AUX)
    Blend: CC-PVDZ-JKFIT
    Number of shells: 210
    Number of basis function: 655
    Number of Cartesian functions: 655
    Spherical Harmonics?: false
    Max angular momentum: 3


  -Total Gradient:
     Atom            X                  Y                   Z
    ------   -----------------  -----------------  -----------------
       1       -0.000106456564     0.001040017339    -0.000015469062
       2        0.000140730025    -0.000505041237     0.000044831769
       3        0.000024044120    -0.000104799030     0.000017944090
       4        0.000036343459    -0.000183067218    -0.000062830616
       5        0.000024378661    -0.000016988929    -0.000056596075
       6       -0.000003074259     0.000001697656     0.000005697479
       7       -0.000014267777     0.000013344168     0.000035062976
       8        0.000019967498     0.000018767710     0.000000549060
       9        0.000002097967     0.000000342702    -0.000001223694
      10        0.000004156461    -0.000001355144    -0.000008283882
      11       -0.000001801190    -0.000000385937     0.000000074166
      12        0.000000391509     0.000000585978     0.000000227616
      13       -0.000079962670    -0.000230836813     0.000025473014
      14       -0.000051078662    -0.000035428351     0.000015908516
      15        0.000004531421     0.000003147105    -0.000001365354


*** tstop() called on wr86 at Thu Dec  6 16:10:27 2018
Module time:
	user time   =      15.02 seconds =       0.25 minutes
	system time =       0.51 seconds =       0.01 minutes
	total time  =          1 seconds =       0.02 minutes
Total time:
	user time   =     165.22 seconds =       2.75 minutes
	system time =       5.74 seconds =       0.10 minutes
	total time  =         14 seconds =       0.23 minutes

  //>>>>>>>>>>>>>>>>>>>>>>>>>>>>>>>>>>>//
  //    Loading displacement 5 of 79   //
  //<<<<<<<<<<<<<<<<<<<<<<<<<<<<<<<<<<<//
gradient() will perform analytic gradient computation.

*** tstart() called on wr86
*** at Thu Dec  6 16:10:27 2018

   => Loading Basis Set <=

    Name: 6-31G(D)
    Role: ORBITAL
    Keyword: BASIS
    atoms 1, 4, 8, 13               entry C          line   111 file /usr/local/hpc1/software_molmod/psi4/psi4conda/share/psi4/basis/6-31g_d_.gbs 
    atoms 2-3, 5-7, 9-10, 12, 14-15 entry H          line    44 file /usr/local/hpc1/software_molmod/psi4/psi4conda/share/psi4/basis/6-31g_d_.gbs 
    atoms 11                        entry O          line   145 file /usr/local/hpc1/software_molmod/psi4/psi4conda/share/psi4/basis/6-31g_d_.gbs 


         ---------------------------------------------------------
                                   SCF
            by Justin Turney, Rob Parrish, Andy Simmonett
                             and Daniel Smith
                              RHF Reference
                       16 Threads,  95367 MiB Core
         ---------------------------------------------------------

  ==> Geometry <==

    Molecular point group: c1
    Full point group: C1

    Geometry (in Angstrom), charge = 0, multiplicity = 1:

       Center              X                  Y                   Z               Mass       
    ------------   -----------------  -----------------  -----------------  -----------------
         C           -0.657324116451    -0.467911503876     0.775098224631    12.000000000000
         H           -0.326160156845    -1.500110003869     0.875380985676     1.007825032070
         H           -1.406042391901    -0.457281888490    -0.008202883730     1.007825032070
         C           -1.281128416192    -0.007179366240     2.092774917351    12.000000000000
         H           -1.650656421024     1.011510560376     2.015483632511     1.007825032070
         H           -0.558247321695    -0.034881986298     2.903773863708     1.007825032070
[...]
      8   C               -0.05 -0.14 -0.00    0.04 -0.02  0.01   -0.00  0.05 -0.02   
      9   H                0.45  0.02  0.08    0.06 -0.03 -0.19   -0.28 -0.06 -0.49   
     10   H               -0.33  0.25 -0.06   -0.02 -0.02 -0.22    0.21 -0.04  0.58   
     11   O                0.04  0.03  0.00   -0.05  0.02 -0.00    0.01 -0.05  0.01   
     12   H               -0.23  0.05 -0.13    0.48 -0.13  0.28   -0.20  0.04 -0.11   
     13   C                0.01  0.15  0.03   -0.05  0.04 -0.05   -0.01  0.03  0.04   
     14   H                0.07  0.18  0.18    0.16  0.10  0.02    0.27  0.10 -0.18   
     15   H                0.17 -0.01 -0.13   -0.27 -0.21  0.16    0.07  0.06 -0.04   

  Vibration                       25                  26                  27          
  Freq [cm^-1]                1424.8865           1458.0551           1465.6555       
  Irrep                           A                   A                   A           
  Reduced mass [u]              1.2467              1.1284              1.2428        
  Force const [mDyne/A]         1.4913              1.4133              1.5729        
  Turning point v=0 [a0]        0.2603              0.2705              0.2571        
  RMS dev v=0 [a0 u^1/2]        0.2055              0.2032              0.2027        
  Char temp [K]               2050.0913           2097.8135           2108.7487       
  ----------------------------------------------------------------------------------
      1   C                0.04 -0.00  0.00   -0.06  0.01  0.01   -0.06 -0.04  0.07   
      2   H                0.21  0.02 -0.26    0.47  0.14 -0.37    0.21  0.02 -0.22   
      3   H               -0.35 -0.05  0.38   -0.21 -0.11  0.14    0.39  0.13 -0.36   
      4   C               -0.05  0.03 -0.03   -0.01  0.03 -0.01    0.03  0.03  0.01   
      5   H                0.02  0.06  0.16   -0.06  0.02  0.06   -0.06 -0.01 -0.07   
      6   H                0.07 -0.08 -0.14    0.04 -0.07 -0.06    0.00 -0.08  0.02   
      7   H                0.04 -0.04  0.10    0.03 -0.04 -0.07    0.07 -0.10 -0.17   
      8   C               -0.07  0.03 -0.01    0.04 -0.02  0.01    0.00  0.04 -0.00   
      9   H               -0.02  0.07  0.40    0.09 -0.02 -0.04   -0.01  0.04  0.25   
     10   H               -0.10  0.03 -0.12    0.05 -0.06 -0.07   -0.02 -0.07 -0.39   
     11   O                0.05 -0.01 -0.00   -0.03  0.01 -0.00    0.01  0.01  0.00   
     12   H               -0.36  0.10 -0.22    0.18 -0.04  0.10   -0.04  0.02 -0.02   
     13   C                0.07 -0.05  0.01   -0.01 -0.03  0.04   -0.07 -0.04  0.03   
     14   H                0.02 -0.09 -0.21   -0.26 -0.09  0.20    0.38  0.06 -0.39   
     15   H               -0.17  0.04  0.25    0.41  0.17 -0.36    0.04 -0.03 -0.07   

  Vibration                       28                  29                  30          
  Freq [cm^-1]                1554.9891           1567.0344           1607.7945       
  Irrep                           A                   A                   A           
  Reduced mass [u]              1.4193              1.3512              1.4522        
  Force const [mDyne/A]         2.0220              1.9549              2.2118        
  Turning point v=0 [a0]        0.2336              0.2385              0.2271        
  RMS dev v=0 [a0 u^1/2]        0.1968              0.1960              0.1935        
  Char temp [K]               2237.2796           2254.6102           2313.2548       
  ----------------------------------------------------------------------------------
      1   C               -0.07 -0.01  0.08   -0.06 -0.01  0.06    0.02 -0.00 -0.02   
      2   H                0.19  0.03 -0.25    0.19  0.05 -0.14   -0.07 -0.03  0.01   
      3   H                0.23  0.00 -0.22    0.17  0.07 -0.15   -0.03 -0.05  0.03   
      4   C               -0.01  0.04  0.06    0.07 -0.03 -0.12   -0.00  0.00  0.00   
      5   H                0.01  0.01 -0.31   -0.22 -0.08  0.47    0.02  0.01 -0.00   
      6   H                0.20 -0.18 -0.15   -0.39  0.10  0.32   -0.01 -0.00  0.01   
      7   H                0.05 -0.18 -0.27   -0.03  0.31  0.39    0.02 -0.02  0.01   
      8   C               -0.03 -0.02 -0.02   -0.01 -0.00 -0.01    0.02 -0.03 -0.17   
      9   H                0.01  0.00  0.05    0.01  0.01  0.07    0.07  0.03  0.63   
     10   H               -0.02  0.08  0.30    0.00  0.02  0.11    0.10  0.10  0.52   
     11   O               -0.00 -0.00  0.00   -0.00  0.00  0.00   -0.04  0.02  0.02   
     12   H                0.01 -0.01  0.01    0.02 -0.01  0.02    0.31 -0.08  0.20   
     13   C                0.10  0.02 -0.10    0.04  0.00 -0.04   -0.03 -0.02  0.05   
     14   H               -0.25 -0.05  0.33   -0.11 -0.03  0.10    0.25  0.07 -0.03   
     15   H               -0.31  0.01  0.32   -0.13 -0.02  0.12    0.02  0.21  0.02   

  Vibration                       31                  32                  33          
  Freq [cm^-1]                1628.3279           1640.0697           1644.6735       
  Irrep                           A                   A                   A           
  Reduced mass [u]              1.1138              1.0539              1.0424        
  Force const [mDyne/A]         1.7399              1.6703              1.6612        
  Turning point v=0 [a0]        0.2577              0.2639              0.2650        
  RMS dev v=0 [a0 u^1/2]        0.1923              0.1916              0.1913        
  Char temp [K]               2342.7978           2359.6916           2366.3154       
  ----------------------------------------------------------------------------------
      1   C                0.01  0.02  0.01   -0.00  0.03  0.04   -0.01  0.01 -0.01   
      2   H               -0.14 -0.05 -0.13   -0.22 -0.09 -0.34   -0.02  0.01  0.01   
      3   H                0.02 -0.20 -0.01    0.10 -0.40 -0.08    0.02 -0.04 -0.04   
      4   C               -0.00 -0.01 -0.00   -0.02 -0.03 -0.01   -0.03  0.03 -0.03   
      5   H                0.02  0.01  0.05    0.33  0.13  0.33    0.46  0.18 -0.17   
      6   H               -0.02  0.05  0.01    0.03  0.53 -0.02   -0.35 -0.16  0.27   
      7   H               -0.01  0.01  0.01   -0.02 -0.12 -0.27    0.44 -0.44  0.33   
      8   C               -0.00  0.00  0.04   -0.00  0.00 -0.00   -0.00 -0.00  0.01   
      9   H               -0.05 -0.02 -0.09    0.02  0.00  0.00    0.01  0.00 -0.02   
     10   H               -0.06  0.01 -0.15    0.02 -0.01  0.02    0.00 -0.01 -0.01   
     11   O                0.01 -0.00 -0.00   -0.00  0.00  0.00    0.00 -0.00 -0.00   
     12   H               -0.07  0.02 -0.04    0.01 -0.00  0.00   -0.00  0.00 -0.00   
     13   C               -0.03 -0.07 -0.05    0.01  0.02  0.01    0.00  0.00 -0.00   
     14   H                0.44  0.14  0.47   -0.10 -0.03 -0.10   -0.03 -0.01  0.02   
     15   H               -0.09  0.64  0.05    0.02 -0.14 -0.01    0.02 -0.00 -0.02   

  Vibration                       34                  35                  36          
  Freq [cm^-1]                1655.6500           1679.9288           3168.9756       
  Irrep                           A                   A                   A           
  Reduced mass [u]              1.0914              1.0961              1.0580        
  Force const [mDyne/A]         1.7626              1.8225              6.2597        
  Turning point v=0 [a0]        0.2581              0.2557              0.1895        
  RMS dev v=0 [a0 u^1/2]        0.1907              0.1893              0.1378        
  Char temp [K]               2382.1082           2417.0399           4559.4433       
  ----------------------------------------------------------------------------------
      1   C               -0.03 -0.06 -0.03    0.00  0.00 -0.00   -0.00  0.01  0.00   
      2   H                0.37  0.12  0.35   -0.02 -0.00  0.02    0.04 -0.10  0.01   
      3   H               -0.06  0.53  0.02    0.01  0.00 -0.00   -0.03  0.00 -0.03   
      4   C               -0.03 -0.03  0.00    0.00 -0.00  0.00    0.00 -0.00  0.00   
      5   H                0.30  0.12  0.24   -0.01 -0.01 -0.01    0.00 -0.00  0.00   
      6   H                0.03  0.41 -0.02    0.01 -0.00 -0.00   -0.01  0.00 -0.01   
      7   H                0.00 -0.14 -0.21   -0.01  0.01  0.00    0.01  0.01 -0.00   
      8   C               -0.00 -0.00  0.00   -0.08  0.03  0.01    0.05 -0.03 -0.01   
      9   H                0.00 -0.00  0.01    0.66  0.23 -0.06   -0.20  0.72 -0.05   
     10   H               -0.01  0.01  0.02    0.39 -0.58  0.07   -0.46 -0.35  0.11   
     11   O                0.00 -0.00  0.00   -0.01  0.00 -0.00    0.00  0.00  0.00   
     12   H               -0.00  0.00 -0.00   -0.01  0.00 -0.01    0.01 -0.00  0.00   
     13   C                0.01 -0.01 -0.02    0.00 -0.01 -0.01   -0.02 -0.00 -0.01   
     14   H                0.08  0.03  0.12    0.05  0.01  0.01   -0.02  0.06 -0.01   
     15   H               -0.04  0.14  0.03   -0.04  0.04  0.03    0.20 -0.01  0.19   

  Vibration                       37                  38                  39          
  Freq [cm^-1]                3187.9345           3189.7578           3196.5868       
  Irrep                           A                   A                   A           
  Reduced mass [u]              1.0780              1.0611              1.0542        
  Force const [mDyne/A]         6.4551              6.3609              6.3465        
  Turning point v=0 [a0]        0.1872              0.1886              0.1890        
  RMS dev v=0 [a0 u^1/2]        0.1374              0.1374              0.1372        
  Char temp [K]               4586.7209           4589.3443           4599.1697       
  ----------------------------------------------------------------------------------
      1   C                0.01 -0.05 -0.00    0.00 -0.05 -0.00   -0.00  0.03  0.00   
      2   H               -0.20  0.61 -0.06   -0.18  0.55 -0.06    0.11 -0.33  0.03   
      3   H                0.09 -0.01  0.09    0.11 -0.01  0.12   -0.06  0.01 -0.06   
      4   C                0.00  0.01 -0.00    0.01 -0.00 -0.03    0.01 -0.02 -0.04   
      5   H                0.03 -0.07  0.01   -0.08  0.22 -0.02   -0.18  0.49 -0.05   
      6   H                0.01  0.00  0.01    0.24 -0.01  0.26    0.35 -0.02  0.38   
      7   H               -0.04 -0.03  0.01   -0.23 -0.18  0.07   -0.30 -0.23  0.09   
      8   C                0.01  0.04 -0.01    0.00 -0.03  0.00    0.01  0.03 -0.01   
      9   H                0.10 -0.33  0.02   -0.09  0.30 -0.02    0.08 -0.26  0.01   
     10   H               -0.25 -0.17  0.06    0.06  0.04 -0.01   -0.22 -0.15  0.05   
     11   O                0.00 -0.00  0.00    0.00  0.00  0.00   -0.00 -0.00 -0.00   
     12   H               -0.00 -0.00 -0.00    0.00 -0.00  0.00   -0.00 -0.00 -0.00   
     13   C               -0.02 -0.02 -0.03    0.01  0.03  0.02    0.00 -0.01 -0.00   
     14   H               -0.08  0.25 -0.03    0.12 -0.37  0.04   -0.05  0.17 -0.02   
     15   H                0.35 -0.02  0.36   -0.22  0.01 -0.23    0.02 -0.00  0.02   

  Vibration                       40                  41                  42          
  Freq [cm^-1]                3204.1653           3232.6734           3243.9631       
  Irrep                           A                   A                   A           
  Reduced mass [u]              1.0860              1.0965              1.1001        
  Force const [mDyne/A]         6.5689              6.7511              6.8210        
  Turning point v=0 [a0]        0.1860              0.1843              0.1837        
  RMS dev v=0 [a0 u^1/2]        0.1371              0.1365              0.1362        
  Char temp [K]               4610.0735           4651.0902           4667.3335       
  ----------------------------------------------------------------------------------
      1   C                0.00  0.00  0.00   -0.02 -0.00 -0.02   -0.03  0.01 -0.03   
      2   H                0.01 -0.02  0.00   -0.02  0.06 -0.01    0.02 -0.08  0.01   
      3   H               -0.05  0.00 -0.06    0.26 -0.01  0.28    0.33 -0.01  0.34   
      4   C                0.00 -0.01 -0.01    0.01  0.01  0.00    0.06 -0.03  0.04   
      5   H               -0.05  0.15 -0.01    0.01 -0.01  0.00   -0.16  0.49 -0.04   
      6   H                0.11 -0.01  0.12   -0.03  0.00 -0.03   -0.42  0.01 -0.47   
      7   H               -0.10 -0.08  0.03   -0.08 -0.06  0.03   -0.14 -0.13  0.06   
      8   C               -0.04 -0.05  0.01   -0.00 -0.02  0.00   -0.00  0.00 -0.00   
      9   H               -0.09  0.27 -0.01   -0.06  0.19 -0.01    0.01 -0.04  0.00   
     10   H                0.54  0.38 -0.14    0.09  0.06 -0.02   -0.01 -0.01  0.00   
     11   O               -0.00  0.00 -0.00   -0.00  0.00 -0.00    0.00 -0.00 -0.00   
     12   H               -0.00  0.00 -0.00    0.00  0.00 -0.00    0.00 -0.00 -0.00   
     13   C               -0.03 -0.01 -0.03    0.04 -0.06  0.03   -0.01  0.02 -0.01   
     14   H               -0.05  0.15 -0.02   -0.24  0.75 -0.07    0.06 -0.18  0.02   
     15   H                0.42 -0.01  0.43   -0.27  0.00 -0.27    0.09 -0.00  0.09   

  Vibration                       43                  44                  45          
  Freq [cm^-1]                3260.6250           3270.7216           4116.8096       
  Irrep                           A                   A                   A           
  Reduced mass [u]              1.1022              1.0997              1.0670        
  Force const [mDyne/A]         6.9041              6.9315             10.6542        
  Turning point v=0 [a0]        0.1830              0.1830              0.1656        
  RMS dev v=0 [a0 u^1/2]        0.1359              0.1357              0.1209        
  Char temp [K]               4691.3062           4705.8330           5923.1634       
  ----------------------------------------------------------------------------------
      1   C                0.00 -0.01 -0.00   -0.05  0.02 -0.05   -0.00  0.00  0.00   
      2   H               -0.04  0.12 -0.01    0.07 -0.24  0.02    0.00  0.00 -0.00   
      3   H                0.03 -0.00  0.03    0.52 -0.01  0.55    0.00 -0.00  0.00   
      4   C               -0.05 -0.08  0.01   -0.04  0.02 -0.02    0.00 -0.00 -0.00   
      5   H               -0.19  0.49 -0.04    0.10 -0.29  0.02   -0.00  0.00  0.00   
      6   H                0.10 -0.02  0.12    0.26 -0.01  0.30    0.00  0.00  0.00   
      7   H                0.63  0.48 -0.21    0.11  0.09 -0.04   -0.00 -0.00  0.00   
      8   C                0.00 -0.00  0.00   -0.00  0.00 -0.00    0.00 -0.00  0.00   
      9   H               -0.01  0.02 -0.00    0.01 -0.04  0.00    0.00  0.00  0.00   
     10   H                0.01  0.00 -0.00   -0.01 -0.00  0.00    0.00 -0.00  0.00   
     11   O                0.00  0.00  0.00    0.00  0.00  0.00    0.02 -0.02 -0.06   
     12   H               -0.00 -0.00  0.00    0.00  0.00 -0.00   -0.38  0.31  0.87   
     13   C                0.00 -0.01  0.00   -0.02  0.02 -0.01   -0.00  0.00  0.00   
     14   H               -0.02  0.08 -0.01    0.06 -0.20  0.02   -0.00  0.00  0.00   
     15   H               -0.02 -0.00 -0.02    0.13 -0.00  0.12    0.00  0.00  0.00   

  ==> Thermochemistry Components <==

  Entropy, S
    Electronic S            0.000 [cal/(mol K)]        0.000 [J/(mol K)]       0.00000000 [mEh/K] (multiplicity = 1)
    Translational S        38.823 [cal/(mol K)]      162.437 [J/(mol K)]       0.06186912 [mEh/K] (mol. weight = 74.0732 [u], P = 101325.00 [Pa])
    Rotational S           25.986 [cal/(mol K)]      108.727 [J/(mol K)]       0.04141186 [mEh/K] (symmetry no. = 1)
    Vibrational S          13.401 [cal/(mol K)]       56.068 [J/(mol K)]       0.02135531 [mEh/K]
  Total S                  78.210 [cal/(mol K)]      327.233 [J/(mol K)]       0.12463629 [mEh/K]
  Correction S              0.000 [cal/(mol K)]        0.000 [J/(mol K)]       0.00000000 [mEh/K]

  Constant volume heat capacity, Cv
    Electronic Cv           0.000 [cal/(mol K)]        0.000 [J/(mol K)]       0.00000000 [mEh/K]
    Translational Cv        2.981 [cal/(mol K)]       12.472 [J/(mol K)]       0.00475022 [mEh/K]
    Rotational Cv           2.981 [cal/(mol K)]       12.472 [J/(mol K)]       0.00475022 [mEh/K]
    Vibrational Cv         15.661 [cal/(mol K)]       65.527 [J/(mol K)]       0.02495797 [mEh/K]
  Total Cv                 21.623 [cal/(mol K)]       90.471 [J/(mol K)]       0.03445841 [mEh/K]
  Correction Cv             0.000 [cal/(mol K)]        0.000 [J/(mol K)]       0.00000000 [mEh/K]

  Constant pressure heat capacity, Cp
    Electronic Cp           0.000 [cal/(mol K)]        0.000 [J/(mol K)]       0.00000000 [mEh/K]
    Translational Cp        4.968 [cal/(mol K)]       20.786 [J/(mol K)]       0.00791704 [mEh/K]
    Rotational Cp           2.981 [cal/(mol K)]       12.472 [J/(mol K)]       0.00475022 [mEh/K]
    Vibrational Cp         15.661 [cal/(mol K)]       65.527 [J/(mol K)]       0.02495797 [mEh/K]
  Total Cp                 23.610 [cal/(mol K)]       98.785 [J/(mol K)]       0.03762522 [mEh/K]
  Correction Cp             0.000 [cal/(mol K)]        0.000 [J/(mol K)]       0.00000000 [mEh/K]

  ==> Thermochemistry Energy Analysis <==

  Raw electronic energy, E0
  Total E0, Electronic energy at well bottom at 0 [K]                 -232.14525269 [Eh]

  Zero-point energy, ZPE_vib = Sum_i nu_i / 2
    Electronic ZPE          0.000 [kcal/mol]        0.000 [kJ/mol]       0.00000000 [Eh]
    Translational ZPE       0.000 [kcal/mol]        0.000 [kJ/mol]       0.00000000 [Eh]
    Rotational ZPE          0.000 [kcal/mol]        0.000 [kJ/mol]       0.00000000 [Eh]
    Vibrational ZPE        92.443 [kcal/mol]      386.781 [kJ/mol]       0.14731722 [Eh]       32332.387 [cm^-1]
  Correction ZPE           92.443 [kcal/mol]      386.781 [kJ/mol]       0.14731722 [Eh]       32332.387 [cm^-1]
  Total ZPE, Electronic energy at 0 [K]                               -231.99793548 [Eh]

  Thermal Energy, E (includes ZPE)
    Electronic E            0.000 [kcal/mol]        0.000 [kJ/mol]       0.00000000 [Eh]
    Translational E         0.889 [kcal/mol]        3.718 [kJ/mol]       0.00141628 [Eh]
    Rotational E            0.889 [kcal/mol]        3.718 [kJ/mol]       0.00141628 [Eh]
    Vibrational E          94.720 [kcal/mol]      396.308 [kJ/mol]       0.15094587 [Eh]
  Correction E             96.497 [kcal/mol]      403.745 [kJ/mol]       0.15377843 [Eh]
  Total E, Electronic energy at  298.15 [K]                           -231.99147427 [Eh]

  Enthalpy, H_trans = E_trans + k_B * T
    Electronic H            0.000 [kcal/mol]        0.000 [kJ/mol]       0.00000000 [Eh]
    Translational H         1.481 [kcal/mol]        6.197 [kJ/mol]       0.00236046 [Eh]
    Rotational H            0.889 [kcal/mol]        3.718 [kJ/mol]       0.00141628 [Eh]
    Vibrational H          94.720 [kcal/mol]      396.308 [kJ/mol]       0.15094587 [Eh]
  Correction H             97.090 [kcal/mol]      406.224 [kJ/mol]       0.15472261 [Eh]
  Total H, Enthalpy at  298.15 [K]                                    -231.99053008 [Eh]

  Gibbs free energy, G = H - T * S
    Electronic G            0.000 [kcal/mol]        0.000 [kJ/mol]       0.00000000 [Eh]
    Translational G       -10.094 [kcal/mol]      -42.233 [kJ/mol]      -0.01608581 [Eh]
    Rotational G           -6.859 [kcal/mol]      -28.698 [kJ/mol]      -0.01093067 [Eh]
    Vibrational G          90.725 [kcal/mol]      379.592 [kJ/mol]       0.14457878 [Eh]
  Correction G             73.771 [kcal/mol]      308.660 [kJ/mol]       0.11756230 [Eh]
  Total G, Free enthalpy at  298.15 [K]                               -232.02769039 [Eh]

    Psi4 stopped on: Thursday, 06 December 2018 04:13PM
    Psi4 wall time for execution: 0:03:44.50

*** Psi4 exiting successfully. Buy a developer a beer!
