
    -----------------------------------------------------------------------
          Psi4: An Open-Source Ab Initio Electronic Structure Package
                               Psi4 1.2.1 release

                         Git: Rev {HEAD} 406f4de 


    R. M. Parrish, L. A. Burns, D. G. A. Smith, A. C. Simmonett,
    A. E. DePrince III, E. G. Hohenstein, U. Bozkaya, A. Yu. Sokolov,
    R. Di Remigio, R. M. Richard, J. F. Gonthier, A. M. James,
    H. R. McAlexander, A. Kumar, M. Saitow, X. Wang, B. P. Pritchard,
    P. Verma, H. F. Schaefer III, K. Patkowski, R. A. King, E. F. Valeev,
    F. A. Evangelista, J. M. Turney, T. D. Crawford, and C. D. Sherrill,
    J. Chem. Theory Comput. 13(7) pp 3185--3197 (2017).
    (doi: 10.1021/acs.jctc.7b00174)


                         Additional Contributions by
    P. Kraus, H. Kruse, M. H. Lechner, M. C. Schieber, and R. A. Shaw

    -----------------------------------------------------------------------


    Psi4 started on: Thursday, 06 December 2018 03:24PM

    Process ID: 218169
    Host:       wr86
    PSIDATADIR: /usr/local/hpc1/software_molmod/psi4/psi4conda/share/psi4
    Memory:     500.0 MiB
    Threads:    16
    
  ==> Input File <==

--------------------------------------------------------------------------
memory 100 Gb

molecule conf_01 {
0 1
  C    -2.458801342100    -0.641093572700     0.404168152800
  H    -2.127276620200    -1.673179089400     0.503616029000
  H    -3.207132608100    -0.630748766000    -0.380433900300
  C    -3.083618186200    -0.180822056700     1.720695821000
  H    -3.453620451900     0.837698801100     1.643318803500
  H    -2.361167314500    -0.208213349800     2.532101715300
  H    -3.919245358500    -0.814612499200     2.001256554500
  C    -0.639557094500    -0.205895333700    -1.330582072500
  H    -0.309461068400    -1.241518356700    -1.257859436900
  H     0.238479226100     0.404787920600    -1.533269341500
  O    -1.585175951200    -0.060944981600    -2.359997623000
  H    -1.214385830700    -0.360274222500    -3.177761382400
  C    -1.274864583000     0.228847366400    -0.020964563100
  H    -1.595740935600     1.262364154500    -0.123175703900
  H    -0.508431881200     0.210603985700     0.751886947600
}
set globals {
  reference rhf
  g_convergence gau_tight
  basis 6-31G(d)
}
optimize('scf')

--------------------------------------------------------------------------

  Memory set to  93.132 GiB by Python driver.
gradient() will perform analytic gradient computation.

*** tstart() called on wr86
*** at Thu Dec  6 15:24:59 2018

   => Loading Basis Set <=

    Name: 6-31G(D)
    Role: ORBITAL
    Keyword: BASIS
    atoms 1, 4, 8, 13               entry C          line   111 file /usr/local/hpc1/software_molmod/psi4/psi4conda/share/psi4/basis/6-31g_d_.gbs 
    atoms 2-3, 5-7, 9-10, 12, 14-15 entry H          line    44 file /usr/local/hpc1/software_molmod/psi4/psi4conda/share/psi4/basis/6-31g_d_.gbs 
    atoms 11                        entry O          line   145 file /usr/local/hpc1/software_molmod/psi4/psi4conda/share/psi4/basis/6-31g_d_.gbs 


         ---------------------------------------------------------
                                   SCF
            by Justin Turney, Rob Parrish, Andy Simmonett
                             and Daniel Smith
                              RHF Reference
                       16 Threads,  95367 MiB Core
         ---------------------------------------------------------

  ==> Geometry <==

    Molecular point group: c1
    Full point group: C1

    Geometry (in Angstrom), charge = 0, multiplicity = 1:

       Center              X                  Y                   Z               Mass       
    ------------   -----------------  -----------------  -----------------  -----------------
         C           -0.657349146499    -0.468388897789     0.775435704715    12.000000000000
         H           -0.325824424599    -1.500474414489     0.874883580915     1.007825032070
         H           -1.405680412499    -0.458044091089    -0.009166348385     1.007825032070
         C           -1.282165990599    -0.008117381789     2.091963372915    12.000000000000
         H           -1.652168256299     1.010403476011     2.014586355415     1.007825032070
         H           -0.559715118899    -0.035508674889     2.903369267215     1.007825032070
         H           -2.117793162899    -0.641907824289     2.372524106415     1.007825032070
         C            1.161895101101    -0.033190658789    -0.959314520585    12.000000000000
         H            1.491991127201    -1.068813681789    -0.886591884985     1.007825032070
         H            2.039931421701     0.577492595511    -1.162001789585     1.007825032070
         O            0.216276244401     0.111759693311    -1.988730071085    15.994914619560
         H            0.587066364901    -0.187569547589    -2.806493830485     1.007825032070
         C            0.526587612601     0.401552041311     0.350302988815    12.000000000000
         H            0.205711260001     1.435068829411     0.248091848015     1.007825032070
         H            1.293020314401     0.383308660611     1.123154499515     1.007825032070

  Running in c1 symmetry.

  Rotational constants: A =      0.42610  B =      0.07904  C =      0.07306 [cm^-1]
  Rotational constants: A =  12774.06250  B =   2369.43000  C =   2190.15342 [MHz]
  Nuclear repulsion =  188.676499045307793

  Charge       = 0
  Multiplicity = 1
  Electrons    = 42
  Nalpha       = 21
  Nbeta        = 21

  ==> Algorithm <==

  SCF Algorithm Type is DF.
  DIIS enabled.
  MOM disabled.
  Fractional occupation disabled.
  Guess Type is SAD.
  Energy threshold   = 1.00e-08
  Density threshold  = 1.00e-08
  Integral threshold = 0.00e+00

  ==> Primary Basis <==

  Basis Set: 6-31G(D)
    Blend: 6-31G(D)
    Number of shells: 50
    Number of basis function: 95
    Number of Cartesian functions: 95
    Spherical Harmonics?: false
    Max angular momentum: 2

   => Loading Basis Set <=

    Name: (6-31G(D) AUX)
    Role: JKFIT
    Keyword: DF_BASIS_SCF
    atoms 1, 4, 8, 13               entry C          line   121 file /usr/local/hpc1/software_molmod/psi4/psi4conda/share/psi4/basis/cc-pvdz-jkfit.gbs 
    atoms 2-3, 5-7, 9-10, 12, 14-15 entry H          line    51 file /usr/local/hpc1/software_molmod/psi4/psi4conda/share/psi4/basis/cc-pvdz-jkfit.gbs 
    atoms 11                        entry O          line   221 file /usr/local/hpc1/software_molmod/psi4/psi4conda/share/psi4/basis/cc-pvdz-jkfit.gbs 

  ==> Pre-Iterations <==

   -------------------------------------------------------
    Irrep   Nso     Nmo     Nalpha   Nbeta   Ndocc  Nsocc
   -------------------------------------------------------
     A         95      95       0       0       0       0
   -------------------------------------------------------
    Total      95      95      21      21      21       0
   -------------------------------------------------------

  ==> Integral Setup <==

  ==> DiskDFJK: Density-Fitted J/K Matrices <==

    J tasked:                  Yes
    K tasked:                  Yes
    wK tasked:                  No
    OpenMP threads:             16
    Integrals threads:          16
    Memory (MB):             71525
    Algorithm:                Core
    Integral Cache:           NONE
    Schwarz Cutoff:          1E-12
    Fitting Condition:       1E-12

   => Auxiliary Basis Set <=

  Basis Set: (6-31G(D) AUX)
    Blend: CC-PVDZ-JKFIT
    Number of shells: 210
    Number of basis function: 655
    Number of Cartesian functions: 655
    Spherical Harmonics?: false
    Max angular momentum: 3

  Minimum eigenvalue in the overlap matrix is 4.1122216215E-03.
  Using Symmetric Orthogonalization.

  SCF Guess: Superposition of Atomic Densities via on-the-fly atomic UHF.

  ==> Iterations <==

                           Total Energy        Delta E     RMS |[F,P]|

   @DF-RHF iter   0:  -233.85364113346702   -2.33854e+02   1.16573e-01 
   @DF-RHF iter   1:  -232.02565148831258    1.82799e+00   1.63445e-02 
   @DF-RHF iter   2:  -232.13021360892844   -1.04562e-01   4.29191e-03 DIIS
   @DF-RHF iter   3:  -232.14251326241134   -1.22997e-02   2.13471e-03 DIIS
   @DF-RHF iter   4:  -232.14513540988676   -2.62215e-03   2.93229e-04 DIIS
   @DF-RHF iter   5:  -232.14524189167145   -1.06482e-04   9.68658e-05 DIIS
   @DF-RHF iter   6:  -232.14525174161219   -9.84994e-06   3.88199e-05 DIIS
   @DF-RHF iter   7:  -232.14525257931695   -8.37705e-07   1.08679e-05 DIIS
   @DF-RHF iter   8:  -232.14525267474991   -9.54330e-08   1.78494e-06 DIIS
   @DF-RHF iter   9:  -232.14525268077011   -6.02020e-09   5.99311e-07 DIIS
   @DF-RHF iter  10:  -232.14525268126567   -4.95561e-10   1.25469e-07 DIIS
   @DF-RHF iter  11:  -232.14525268129398   -2.83080e-11   5.33767e-08 DIIS
   @DF-RHF iter  12:  -232.14525268129631   -2.33058e-12   1.11296e-08 DIIS
   @DF-RHF iter  13:  -232.14525268129637   -5.68434e-14   2.13776e-09 DIIS

  ==> Post-Iterations <==

    Orbital Energies [Eh]
    ---------------------

    Doubly Occupied:                                                      

       1A    -20.553199     2A    -11.268155     3A    -11.212129  
       4A    -11.208596     5A    -11.204667     6A     -1.359945  
       7A     -1.064567     8A     -0.973519     9A     -0.856014  
      10A     -0.786324    11A     -0.705163    12A     -0.637877  
      13A     -0.610154    14A     -0.591157    15A     -0.545803  
      16A     -0.528146    17A     -0.512726    18A     -0.475093  
      19A     -0.464889    20A     -0.456998    21A     -0.430105  

    Virtual:                                                              

      22A      0.225074    23A      0.249617    24A      0.276026  
      25A      0.290210    26A      0.307994    27A      0.326776  
      28A      0.338980    29A      0.344605    30A      0.351806  
      31A      0.363392    32A      0.396705    33A      0.431316  
      34A      0.436384    35A      0.453541    36A      0.710718  
      37A      0.722983    38A      0.756364    39A      0.760252  
      40A      0.808340    41A      0.846078    42A      0.879803  
      43A      0.934344    44A      0.963637    45A      1.007487  
      46A      1.042843    47A      1.102462    48A      1.129600  
      49A      1.139929    50A      1.154209    51A      1.175682  
      52A      1.191798    53A      1.200599    54A      1.216241  
      55A      1.226588    56A      1.235583    57A      1.260859  
      58A      1.271769    59A      1.298218    60A      1.330272  
      61A      1.481407    62A      1.545222    63A      1.679724  
      64A      1.697658    65A      1.741860    66A      1.863169  
      67A      1.881123    68A      1.995138    69A      2.024796  
      70A      2.050098    71A      2.134874    72A      2.189614  
      73A      2.236693    74A      2.287613    75A      2.311138  
      76A      2.365582    77A      2.407049    78A      2.464144  
      79A      2.581327    80A      2.617282    81A      2.641992  
      82A      2.712536    83A      2.730664    84A      2.773065  
      85A      2.796592    86A      2.869868    87A      2.963161  
      88A      3.061077    89A      3.086723    90A      3.238152  
      91A      4.177685    92A      4.578879    93A      4.708076  
      94A      4.816327    95A      4.961308  

    Final Occupation by Irrep:
              A 
    DOCC [    21 ]

  Energy converged.

  @DF-RHF Final Energy:  -232.14525268129637

   => Energetics <=

    Nuclear Repulsion Energy =            188.6764990453077928
    One-Electron Energy =                -688.7530504606013437
    Two-Electron Energy =                 267.9312987339972096
    Total Energy =                       -232.1452526812963697



Properties will be evaluated at   0.000000,   0.000000,   0.000000 [a0]

Properties computed using the SCF density matrix

  Nuclear Dipole Moment: [e a0]
     X:    -0.4147      Y:    -0.4551      Z:     4.3706

  Electronic Dipole Moment: [e a0]
     X:     1.0075      Y:     0.2066      Z:    -4.5135

  Dipole Moment: [e a0]
     X:     0.5928      Y:    -0.2485      Z:    -0.1428     Total:     0.6584

  Dipole Moment: [D]
     X:     1.5067      Y:    -0.6315      Z:    -0.3630     Total:     1.6735


*** tstop() called on wr86 at Thu Dec  6 15:25:01 2018
Module time:
	user time   =      17.48 seconds =       0.29 minutes
	system time =       0.83 seconds =       0.01 minutes
	total time  =          2 seconds =       0.03 minutes
Total time:
	user time   =      17.48 seconds =       0.29 minutes
	system time =       0.83 seconds =       0.01 minutes
	total time  =          2 seconds =       0.03 minutes

*** tstart() called on wr86
*** at Thu Dec  6 15:25:01 2018


         ------------------------------------------------------------
                                   SCF GRAD                          
                          Rob Parrish, Justin Turney,                
                       Andy Simmonett, and Alex Sokolov              
         ------------------------------------------------------------

  ==> Geometry <==

    Molecular point group: c1
    Full point group: C1

    Geometry (in Angstrom), charge = 0, multiplicity = 1:

       Center              X                  Y                   Z               Mass       
    ------------   -----------------  -----------------  -----------------  -----------------
         C           -0.657349146499    -0.468388897789     0.775435704715    12.000000000000
         H           -0.325824424599    -1.500474414489     0.874883580915     1.007825032070
         H           -1.405680412499    -0.458044091089    -0.009166348385     1.007825032070
         C           -1.282165990599    -0.008117381789     2.091963372915    12.000000000000
         H           -1.652168256299     1.010403476011     2.014586355415     1.007825032070
         H           -0.559715118899    -0.035508674889     2.903369267215     1.007825032070
         H           -2.117793162899    -0.641907824289     2.372524106415     1.007825032070
         C            1.161895101101    -0.033190658789    -0.959314520585    12.000000000000
         H            1.491991127201    -1.068813681789    -0.886591884985     1.007825032070
         H            2.039931421701     0.577492595511    -1.162001789585     1.007825032070
         O            0.216276244401     0.111759693311    -1.988730071085    15.994914619560
         H            0.587066364901    -0.187569547589    -2.806493830485     1.007825032070
         C            0.526587612601     0.401552041311     0.350302988815    12.000000000000
         H            0.205711260001     1.435068829411     0.248091848015     1.007825032070
         H            1.293020314401     0.383308660611     1.123154499515     1.007825032070

  Nuclear repulsion =  188.676499045307793

  ==> Basis Set <==

  Basis Set: 6-31G(D)
    Blend: 6-31G(D)
    Number of shells: 50
    Number of basis function: 95
    Number of Cartesian functions: 95
    Spherical Harmonics?: false
    Max angular momentum: 2

  ==> DFJKGrad: Density-Fitted SCF Gradients <==

    Gradient:                    1
    J tasked:                  Yes
    K tasked:                  Yes
    wK tasked:                  No
    OpenMP threads:             16
    Integrals threads:          16
    Memory (MB):             71525
    Schwarz Cutoff:          0E+00
    Fitting Condition:       1E-12

   => Auxiliary Basis Set <=

  Basis Set: (6-31G(D) AUX)
    Blend: CC-PVDZ-JKFIT
    Number of shells: 210
    Number of basis function: 655
    Number of Cartesian functions: 655
    Spherical Harmonics?: false
    Max angular momentum: 3


  -Total Gradient:
     Atom            X                  Y                   Z
    ------   -----------------  -----------------  -----------------
       1        0.000004441627     0.000012828352     0.000013724078
       2        0.000000362847    -0.000008540276    -0.000004742999
       3       -0.000005487181    -0.000005555846    -0.000011398266
       4       -0.000004013487    -0.000006361225    -0.000006711249
       5       -0.000001230562     0.000006208395     0.000003032366
       6        0.000002583283     0.000002540375     0.000005950292
       7       -0.000004547330    -0.000001120431     0.000004600754
       8       -0.000044141994     0.000019487456    -0.000046219635
       9        0.000003539233    -0.000016509398    -0.000004196184
      10        0.000013009086     0.000005788875    -0.000008658677
      11        0.000018694815    -0.000000892495     0.000054123221
      12        0.000013889295    -0.000006071560    -0.000003332786
      13        0.000000908387    -0.000018639098    -0.000008677496
      14       -0.000000253234     0.000011021029     0.000002227930
      15        0.000002245215     0.000005815846     0.000010278653


*** tstop() called on wr86 at Thu Dec  6 15:25:02 2018
Module time:
	user time   =      15.78 seconds =       0.26 minutes
	system time =       1.73 seconds =       0.03 minutes
	total time  =          1 seconds =       0.02 minutes
Total time:
	user time   =      33.28 seconds =       0.55 minutes
	system time =       2.56 seconds =       0.04 minutes
	total time  =          3 seconds =       0.05 minutes

			-----------------------------------------
			 OPTKING 2.0: for geometry optimizations 
			  - R.A. King,  Bethel University        
			-----------------------------------------

	Internal coordinates to be generated automatically.
	Detected frag 1 with atoms:  1 2 3 4 5 6 7 8 9 10 11 12 13 14 15
	---Fragment 1 Bond Connectivity---
	 1 : 2 3 4 13
	 2 : 1
	 3 : 1
	 4 : 1 5 6 7
	 5 : 4
	 6 : 4
	 7 : 4
	 8 : 9 10 11 13
	 9 : 8
	 10 : 8
	 11 : 8 12
	 12 : 11
	 13 : 1 8 14 15
	 14 : 13
	 15 : 13

	---Fragment 1 Geometry and Gradient---
	 C          -1.2422098606       -0.8851267405        1.4653611156
	 H          -0.6157189299       -2.8354857128        1.6532903661
	 H          -2.6563510100       -0.8655778889       -0.0173218881
	 C          -2.4229425791       -0.0153396285        3.9532378548
	 H          -3.1221455299        1.9093858534        3.8070164828
	 H          -1.0577082872       -0.0671016709        5.4865727777
	 H          -4.0020490840       -1.2130299905        4.4834208048
	 C           2.1956635362       -0.0627212553       -1.8128417192
	 H           2.8194546231       -2.0197651457       -1.6754158543
	 H           3.8549117169        1.0913028493       -2.1958651482
	 O           0.4087028710        0.2111952131       -3.7581551866
	 H           1.1093946515       -0.3544550758       -5.3035047333
	 C           0.9951063728        0.7588233862        0.6619767124
	 H           0.3887379439        2.7118870694        0.4688256485
	 H           2.4434542785        0.7243483929        2.1224544090
	             0.0000044416        0.0000128284        0.0000137241
	             0.0000003628       -0.0000085403       -0.0000047430
	            -0.0000054872       -0.0000055558       -0.0000113983
	            -0.0000040135       -0.0000063612       -0.0000067112
	            -0.0000012306        0.0000062084        0.0000030324
	             0.0000025833        0.0000025404        0.0000059503
	            -0.0000045473       -0.0000011204        0.0000046008
	            -0.0000441420        0.0000194875       -0.0000462196
	             0.0000035392       -0.0000165094       -0.0000041962
	             0.0000130091        0.0000057889       -0.0000086587
	             0.0000186948       -0.0000008925        0.0000541232
	             0.0000138893       -0.0000060716       -0.0000033328
	             0.0000009084       -0.0000186391       -0.0000086775
	            -0.0000002532        0.0000110210        0.0000022279
	             0.0000022452        0.0000058158        0.0000102787

	Previous optimization step data not found.  Starting new optimization.

	---Fragment 1 Intrafragment Coordinates---
	 - Coordinate -           - BOHR/RAD -       - ANG/DEG -
	 R(1,2)           =         2.057112	       1.088577
	 R(1,3)           =         2.049031	       1.084300
	 R(1,4)           =         2.887939	       1.528231
	 R(1,13)          =         2.890256	       1.529458
	 R(4,5)           =         2.053006	       1.086404
	 R(4,6)           =         2.053694	       1.086768
	 R(4,7)           =         2.051617	       1.085669
	 R(8,9)           =         2.058646	       1.089388
	 R(8,10)          =         2.057081	       1.088560
	 R(8,11)          =         2.655655	       1.405312
	 R(8,13)          =         2.870714	       1.519116
	 R(11,12)         =         1.788584	       0.946478
	 R(13,14)         =         2.054129	       1.086998
	 R(13,15)         =         2.057157	       1.088601
	 B(1,4,5)         =         1.939330	     111.115408
	 B(1,4,6)         =         1.943154	     111.334503
	 B(1,4,7)         =         1.940660	     111.191611
	 B(1,13,8)        =         1.982949	     113.614637
	 B(1,13,14)       =         1.916050	     109.781560
	 B(1,13,15)       =         1.915723	     109.762868
	 B(2,1,3)         =         1.860153	     106.578905
	 B(2,1,4)         =         1.908545	     109.351578
	 B(2,1,13)        =         1.905955	     109.203173
	 B(3,1,4)         =         1.915929	     109.774619
	 B(3,1,13)        =         1.904641	     109.127867
	 B(4,1,13)        =         1.965609	     112.621110
	 B(5,4,6)         =         1.878856	     107.650531
	 B(5,4,7)         =         1.879234	     107.672177
	 B(6,4,7)         =         1.879694	     107.698518
	 B(8,11,12)       =         1.914175	     109.674164
	 B(8,13,14)       =         1.890717	     108.330077
	 B(8,13,15)       =         1.888941	     108.228323
	 B(9,8,10)        =         1.876888	     107.537734
	 B(9,8,11)        =         1.929271	     110.539064
	 B(9,8,13)        =         1.919021	     109.951793
	 B(10,8,11)       =         1.926764	     110.395422
	 B(10,8,13)       =         1.914843	     109.712444
	 B(11,8,13)       =         1.897129	     108.697469
	 B(14,13,15)      =         1.865571	     106.889322
	 D(1,13,8,9)      =        -1.005422	     -57.606460
	 D(1,13,8,10)     =        -3.066188	    -175.679636
	 D(1,13,8,11)     =         1.108601	      63.518146
	 D(2,1,4,5)       =        -3.110192	    -178.200880
	 D(2,1,4,6)       =         1.078853	      61.813750
	 D(2,1,4,7)       =        -1.017245	     -58.283854
	 D(2,1,13,8)      =         1.021572	      58.531781
	 D(2,1,13,14)     =         3.141560	     179.998140
	 D(2,1,13,15)     =        -1.095886	     -62.789630
	 D(3,1,4,5)       =        -1.075273	     -61.608593
	 D(3,1,4,6)       =         3.113773	     178.406037
	 D(3,1,4,7)       =         1.017674	      58.308433
	 D(3,1,13,8)      =        -1.005494	     -57.610588
	 D(3,1,13,14)     =         1.114493	      63.855770
	 D(3,1,13,15)     =        -3.122953	    -178.932000
	 D(4,1,13,8)      =        -3.137790	    -179.782103
	 D(4,1,13,14)     =        -1.017802	     -58.315744
	 D(4,1,13,15)     =         1.027938	      58.896486
	 D(5,4,1,13)      =         1.050640	      60.197230
	 D(6,4,1,13)      =        -1.043500	     -59.788140
	 D(7,4,1,13)      =        -3.139599	    -179.885745
	 D(9,8,11,12)     =        -0.995443	     -57.034704
	 D(9,8,13,14)     =        -3.139486	    -179.879284
	 D(9,8,13,15)     =         1.126936	      64.568693
	 D(10,8,11,12)    =         1.078988	      61.821472
	 D(10,8,13,14)    =         1.082934	      62.047541
	 D(10,8,13,15)    =        -0.933829	     -53.504482
	 D(11,8,13,14)    =        -1.025463	     -58.754678
	 D(11,8,13,15)    =        -3.042226	    -174.306701
	 D(12,11,8,13)    =        -3.103161	    -177.798021

	Current energy   :      -232.1452526813

	Generating empirical Hessian (Schlegel '84) for each fragment.
	Taking RFO optimization step.
	Going to follow RFO solution 1.
	Using RFO vector 1.
	Norm of target step-size    0.00218
	Projected energy change by RFO approximation:        -0.0000000436

	Back-transformation to cartesian coordinates...
	Successfully converged to displaced geometry.

	--- Internal Coordinate Step in ANG or DEG, aJ/ANG or AJ/DEG ---
	 ---------------------------------------------------------------------------
	   Coordinate                Previous        Force       Change         New 
	   ----------                --------       ------       ------       ------
	    1 R(1,2)          =      1.088577    -0.000064    -0.000012     1.088565
	    2 R(1,3)          =      1.084300    -0.000099    -0.000018     1.084282
	    3 R(1,4)          =      1.528231    -0.000076    -0.000017     1.528215
	    4 R(1,13)         =      1.529458    -0.000061    -0.000013     1.529445
	    5 R(4,5)          =      1.086404    -0.000050    -0.000009     1.086395
	    6 R(4,6)          =      1.086768    -0.000050    -0.000009     1.086759
	    7 R(4,7)          =      1.085669    -0.000044    -0.000008     1.085661
	    8 R(8,9)          =      1.089388    -0.000136    -0.000025     1.089363
	    9 R(8,10)         =      1.088560    -0.000126    -0.000023     1.088537
	   10 R(8,11)         =      1.405312     0.000493     0.000071     1.405383
	   11 R(8,13)         =      1.519116    -0.000072    -0.000015     1.519101
	   12 R(11,12)        =      0.946478    -0.000084    -0.000009     0.946469
	   13 R(13,14)        =      1.086998    -0.000085    -0.000016     1.086983
	   14 R(13,15)        =      1.088601    -0.000072    -0.000013     1.088587
	   15 B(1,4,5)        =    111.115408    -0.000000    -0.000707   111.114701
	   16 B(1,4,6)        =    111.334503    -0.000000    -0.000494   111.334009
	   17 B(1,4,7)        =    111.191611    -0.000000    -0.002127   111.189485
	   18 B(1,13,8)       =    113.614637     0.000000    -0.000145   113.614492
	   19 B(1,13,14)      =    109.781560    -0.000000     0.001643   109.783203
	   20 B(1,13,15)      =    109.762868     0.000000    -0.001190   109.761678
	   21 B(2,1,3)        =    106.578905     0.000000     0.003920   106.582825
	   22 B(2,1,4)        =    109.351578    -0.000000    -0.001857   109.349721
	   23 B(2,1,13)       =    109.203173     0.000000     0.000297   109.203470
	   24 B(3,1,4)        =    109.774619    -0.000000    -0.000885   109.773734
	   25 B(3,1,13)       =    109.127867     0.000000     0.001106   109.128972
	   26 B(4,1,13)       =    112.621110    -0.000000    -0.002225   112.618884
	   27 B(5,4,6)        =    107.650531     0.000000     0.002266   107.652797
	   28 B(5,4,7)        =    107.672177     0.000000     0.000572   107.672750
	   29 B(6,4,7)        =    107.698518     0.000000     0.000695   107.699213
	   30 B(8,11,12)      =    109.674164     0.000002     0.007464   109.681628
	   31 B(8,13,14)      =    108.330077     0.000000     0.001583   108.331660
	   32 B(8,13,15)      =    108.228323    -0.000000    -0.005058   108.223265
	   33 B(9,8,10)       =    107.537734     0.000000     0.000166   107.537900
	   34 B(9,8,11)       =    110.539064     0.000000     0.003791   110.542856
	   35 B(9,8,13)       =    109.951793    -0.000000    -0.001262   109.950531
	   36 B(10,8,11)      =    110.395422    -0.000000    -0.000225   110.395198
	   37 B(10,8,13)      =    109.712444    -0.000001    -0.004766   109.707678
	   38 B(11,8,13)      =    108.697469     0.000001     0.002175   108.699645
	   39 B(14,13,15)     =    106.889322     0.000000     0.003355   106.892677
	   40 D(1,13,8,9)     =    -57.606460    -0.000000     0.016660   -57.589799
	   41 D(1,13,8,10)    =   -175.679636     0.000000     0.020086  -175.659550
	   42 D(1,13,8,11)    =     63.518146     0.000000     0.021910    63.540056
	   43 D(2,1,4,5)      =   -178.200880    -0.000000    -0.001351  -178.202231
	   44 D(2,1,4,6)      =     61.813750    -0.000000    -0.003413    61.810337
	   45 D(2,1,4,7)      =    -58.283854    -0.000000    -0.002523   -58.286377
	   46 D(2,1,13,8)     =     58.531781    -0.000000    -0.037939    58.493842
	   47 D(2,1,13,14)    =    179.998140     0.000000    -0.034791   179.963349
	   48 D(2,1,13,15)    =    -62.789630     0.000000    -0.030449   -62.820079
	   49 D(3,1,4,5)      =    -61.608593     0.000000     0.001801   -61.606792
	   50 D(3,1,4,6)      =    178.406037    -0.000000    -0.000261   178.405776
	   51 D(3,1,4,7)      =     58.308433     0.000000     0.000629    58.309062
	   52 D(3,1,13,8)     =    -57.610588    -0.000000    -0.043412   -57.654001
	   53 D(3,1,13,14)    =     63.855770    -0.000000    -0.040264    63.815506
	   54 D(3,1,13,15)    =   -178.932000     0.000000    -0.035922  -178.967921
	   55 D(4,1,13,8)     =   -179.782103    -0.000000    -0.041574  -179.823677
	   56 D(4,1,13,14)    =    -58.315744    -0.000000    -0.038426   -58.354170
	   57 D(4,1,13,15)    =     58.896486     0.000000    -0.034084    58.862402
	   58 D(5,4,1,13)     =     60.197230     0.000000     0.001068    60.198298
	   59 D(6,4,1,13)     =    -59.788140    -0.000000    -0.000994   -59.789134
	   60 D(7,4,1,13)     =   -179.885745     0.000000    -0.000104  -179.885849
	   61 D(9,8,11,12)    =    -57.034704    -0.000000    -0.002046   -57.036750
	   62 D(9,8,13,14)    =   -179.879284    -0.000000     0.013505  -179.865779
	   63 D(9,8,13,15)    =     64.568693    -0.000000     0.011384    64.580077
	   64 D(10,8,11,12)   =     61.821472     0.000000     0.000410    61.821882
	   65 D(10,8,13,14)   =     62.047541     0.000000     0.016930    62.064471
	   66 D(10,8,13,15)   =    -53.504482     0.000000     0.014809   -53.489673
	   67 D(11,8,13,14)   =    -58.754678     0.000000     0.018754   -58.735924
	   68 D(11,8,13,15)   =   -174.306701     0.000000     0.016633  -174.290068
	   69 D(12,11,8,13)   =   -177.798021    -0.000000    -0.004215  -177.802237
	 ---------------------------------------------------------------------------
	Successfully symmetrized geometry.

  ==> Convergence Check <==

  Measures of convergence in internal coordinates in au.
  Criteria marked as inactive (o), active & met (*), and active & unmet ( ).
  --------------------------------------------------------------------------------------------- ~
   Step     Total Energy     Delta E     MAX Force     RMS Force      MAX Disp      RMS Disp    ~
  --------------------------------------------------------------------------------------------- ~
    Convergence Criteria             o    1.50e-05 *    1.00e-05 *    6.00e-05 *    4.00e-05 *  ~
  --------------------------------------------------------------------------------------------- ~
      1    -232.14525268   -2.32e+02 o    5.98e-05      9.21e-06 *    7.58e-04      2.63e-04    ~
  ---------------------------------------------------------------------------------------------

	Writing optimization data to binary file.
	Structure for next step:
	Cartesian Geometry (in Angstrom)
	    C    -0.6575684741  -0.4681340651   0.7754007330
	    H    -0.3261652943  -1.5002669322   0.8746333135
	    H    -1.4061429404  -0.4575249389  -0.0089410558
	    C    -1.2818817448  -0.0079594725   2.0921819537
	    H    -1.6517436625   1.0106219382   2.0150584720
	    H    -0.5591822469  -0.0356165471   2.9033451099
	    H    -2.1175177308  -0.6416655376   2.3728760232
	    C     1.1618405254  -0.0335212349  -0.9592855072
	    H     1.4916972510  -1.0691686498  -0.8861999707
	    H     2.0400428282   0.5769232721  -1.1618480902
	    O     0.2164836803   0.1114491514  -1.9890354452
	    H     0.5873190952  -0.1880874672  -2.8066920013
	    C     0.5263649509   0.4016942711   0.3500758251
	    H     0.2054951625   1.4351580658   0.2474745461
	    H     1.2927415344   0.3836682705   1.1229693728
			--------------------------
			 OPTKING Finished Execution 
			--------------------------

    Structure for next step:
    Molecular point group: c1
    Full point group: C1

    Geometry (in Angstrom), charge = 0, multiplicity = 1:

    C           -0.657578936889    -0.468104533195     0.775464676678
    H           -0.326175757021    -1.500237400214     0.874697257139
    H           -1.406153403155    -0.457495406934    -0.008877112093
    C           -1.281892207530    -0.007929940584     2.092245897377
    H           -1.651754125321     1.010651470126     2.015122415675
    H           -0.559192709681    -0.035587015200     2.903409053566
    H           -2.117528193597    -0.641636005682     2.372939966852
    C            1.161830062624    -0.033491702961    -0.959221563567
    H            1.491686788197    -1.069139117902    -0.886136027017
    H            2.040032365414     0.576952804076    -1.161784146568
    O            0.216473217550     0.111478683340    -1.988971501542
    H            0.587308632468    -0.188057935253    -2.806628057675
    C            0.526354488080     0.401723802999     0.350139768743
    H            0.205484699680     1.435187597722     0.247538489755
    H            1.292731071627     0.383697802393     1.123033316502

gradient() will perform analytic gradient computation.

*** tstart() called on wr86
*** at Thu Dec  6 15:25:03 2018

   => Loading Basis Set <=

    Name: 6-31G(D)
    Role: ORBITAL
    Keyword: BASIS
    atoms 1, 4, 8, 13               entry C          line   111 file /usr/local/hpc1/software_molmod/psi4/psi4conda/share/psi4/basis/6-31g_d_.gbs 
    atoms 2-3, 5-7, 9-10, 12, 14-15 entry H          line    44 file /usr/local/hpc1/software_molmod/psi4/psi4conda/share/psi4/basis/6-31g_d_.gbs 
    atoms 11                        entry O          line   145 file /usr/local/hpc1/software_molmod/psi4/psi4conda/share/psi4/basis/6-31g_d_.gbs 


         ---------------------------------------------------------
                                   SCF
            by Justin Turney, Rob Parrish, Andy Simmonett
                             and Daniel Smith
                              RHF Reference
                       16 Threads,  95367 MiB Core
         ---------------------------------------------------------

  ==> Geometry <==

    Molecular point group: c1
    Full point group: C1

    Geometry (in Angstrom), charge = 0, multiplicity = 1:

       Center              X                  Y                   Z               Mass       
    ------------   -----------------  -----------------  -----------------  -----------------
         C           -0.657578936889    -0.468104533195     0.775464676678    12.000000000000
         H           -0.326175757021    -1.500237400214     0.874697257139     1.007825032070
         H           -1.406153403155    -0.457495406934    -0.008877112093     1.007825032070
         C           -1.281892207530    -0.007929940584     2.092245897377    12.000000000000
         H           -1.651754125321     1.010651470126     2.015122415675     1.007825032070
         H           -0.559192709681    -0.035587015200     2.903409053566     1.007825032070
         H           -2.117528193597    -0.641636005682     2.372939966852     1.007825032070
         C            1.161830062624    -0.033491702961    -0.959221563567    12.000000000000
         H            1.491686788197    -1.069139117902    -0.886136027017     1.007825032070
         H            2.040032365414     0.576952804076    -1.161784146568     1.007825032070
         O            0.216473217550     0.111478683340    -1.988971501542    15.994914619560
         H            0.587308632468    -0.188057935253    -2.806628057675     1.007825032070
         C            0.526354488080     0.401723802999     0.350139768743    12.000000000000
         H            0.205484699680     1.435187597722     0.247538489755     1.007825032070
         H            1.292731071627     0.383697802393     1.123033316502     1.007825032070

  Running in c1 symmetry.

  Rotational constants: A =      0.42618  B =      0.07903  C =      0.07305 [cm^-1]
  Rotational constants: A =  12776.66072  B =   2369.17339  C =   2189.98806 [MHz]
  Nuclear repulsion =  188.674756032154647

  Charge       = 0
  Multiplicity = 1
  Electrons    = 42
  Nalpha       = 21
  Nbeta        = 21

  ==> Algorithm <==

  SCF Algorithm Type is DF.
  DIIS enabled.
  MOM disabled.
  Fractional occupation disabled.
  Guess Type is READ.
  Energy threshold   = 1.00e-08
  Density threshold  = 1.00e-08
  Integral threshold = 0.00e+00

  ==> Primary Basis <==

  Basis Set: 6-31G(D)
    Blend: 6-31G(D)
    Number of shells: 50
    Number of basis function: 95
    Number of Cartesian functions: 95
    Spherical Harmonics?: false
    Max angular momentum: 2

   => Loading Basis Set <=

    Name: (6-31G(D) AUX)
    Role: JKFIT
    Keyword: DF_BASIS_SCF
    atoms 1, 4, 8, 13               entry C          line   121 file /usr/local/hpc1/software_molmod/psi4/psi4conda/share/psi4/basis/cc-pvdz-jkfit.gbs 
    atoms 2-3, 5-7, 9-10, 12, 14-15 entry H          line    51 file /usr/local/hpc1/software_molmod/psi4/psi4conda/share/psi4/basis/cc-pvdz-jkfit.gbs 
    atoms 11                        entry O          line   221 file /usr/local/hpc1/software_molmod/psi4/psi4conda/share/psi4/basis/cc-pvdz-jkfit.gbs 

  Reading orbitals from file 180, no projection.

  ==> Pre-Iterations <==

   -------------------------------------------------------
    Irrep   Nso     Nmo     Nalpha   Nbeta   Ndocc  Nsocc
   -------------------------------------------------------
     A         95      95       0       0       0       0
   -------------------------------------------------------
    Total      95      95      21      21      21       0
   -------------------------------------------------------

  ==> Integral Setup <==

  ==> DiskDFJK: Density-Fitted J/K Matrices <==

    J tasked:                  Yes
    K tasked:                  Yes
    wK tasked:                  No
    OpenMP threads:             16
    Integrals threads:          16
    Memory (MB):             71525
    Algorithm:                Core
    Integral Cache:           NONE
    Schwarz Cutoff:          1E-12
    Fitting Condition:       1E-12

   => Auxiliary Basis Set <=

  Basis Set: (6-31G(D) AUX)
    Blend: CC-PVDZ-JKFIT
    Number of shells: 210
    Number of basis function: 655
    Number of Cartesian functions: 655
    Spherical Harmonics?: false
    Max angular momentum: 3

  Minimum eigenvalue in the overlap matrix is 4.1120244578E-03.
  Using Symmetric Orthogonalization.

  SCF Guess: Orbitals guess was supplied from a previous computation.

  ==> Iterations <==

                           Total Energy        Delta E     RMS |[F,P]|

   @DF-RHF iter   0:  -232.14528695227858   -2.32145e+02   1.99176e-05 
   @DF-RHF iter   1:  -232.14525266749055    3.42848e-05   5.66886e-06 
   @DF-RHF iter   2:  -232.14525268446823   -1.69777e-08   2.02293e-06 DIIS
   @DF-RHF iter   3:  -232.14525268667077   -2.20254e-09   4.38816e-07 DIIS
   @DF-RHF iter   4:  -232.14525268674083   -7.00595e-11   9.44441e-08 DIIS
   @DF-RHF iter   5:  -232.14525268675081   -9.97602e-12   2.55275e-08 DIIS
   @DF-RHF iter   6:  -232.14525268675175   -9.37916e-13   1.22683e-08 DIIS
   @DF-RHF iter   7:  -232.14525268675220   -4.54747e-13   2.63464e-09 DIIS

  ==> Post-Iterations <==

    Orbital Energies [Eh]
    ---------------------

    Doubly Occupied:                                                      

       1A    -20.553191     2A    -11.268152     3A    -11.212125  
       4A    -11.208594     5A    -11.204665     6A     -1.359910  
       7A     -1.064582     8A     -0.973532     9A     -0.856017  
      10A     -0.786330    11A     -0.705150    12A     -0.637877  
      13A     -0.610162    14A     -0.591149    15A     -0.545799  
      16A     -0.528163    17A     -0.512715    18A     -0.475095  
      19A     -0.464902    20A     -0.457001    21A     -0.430109  

    Virtual:                                                              

      22A      0.225081    23A      0.249612    24A      0.276026  
      25A      0.290208    26A      0.307978    27A      0.326772  
      28A      0.338985    29A      0.344620    30A      0.351807  
      31A      0.363379    32A      0.396697    33A      0.431320  
      34A      0.436385    35A      0.453550    36A      0.710714  
      37A      0.722975    38A      0.756362    39A      0.760232  
      40A      0.808332    41A      0.846068    42A      0.879792  
      43A      0.934372    44A      0.963626    45A      1.007472  
      46A      1.042859    47A      1.102470    48A      1.129620  
      49A      1.139920    50A      1.154220    51A      1.175698  
      52A      1.191795    53A      1.200614    54A      1.216262  
      55A      1.226601    56A      1.235596    57A      1.260862  
      58A      1.271798    59A      1.298208    60A      1.330244  
      61A      1.481438    62A      1.545221    63A      1.679687  
      64A      1.697690    65A      1.741847    66A      1.863173  
      67A      1.881162    68A      1.995151    69A      2.024773  
      70A      2.050120    71A      2.134943    72A      2.189574  
      73A      2.236700    74A      2.287620    75A      2.311188  
      76A      2.365556    77A      2.406991    78A      2.464151  
      79A      2.581326    80A      2.617258    81A      2.641990  
      82A      2.712521    83A      2.730622    84A      2.773093  
      85A      2.796588    86A      2.869894    87A      2.963197  
      88A      3.061068    89A      3.086754    90A      3.238116  
      91A      4.177643    92A      4.578901    93A      4.708092  
      94A      4.816336    95A      4.961314  

    Final Occupation by Irrep:
              A 
    DOCC [    21 ]

  Energy converged.

  @DF-RHF Final Energy:  -232.14525268675220

   => Energetics <=

    Nuclear Repulsion Energy =            188.6747560321546473
    One-Electron Energy =                -688.7495783494614443
    Two-Electron Energy =                 267.9295696305546244
    Total Energy =                       -232.1452526867522010



Properties will be evaluated at   0.000000,   0.000000,   0.000000 [a0]

Properties computed using the SCF density matrix

  Nuclear Dipole Moment: [e a0]
     X:    -0.4148      Y:    -0.4548      Z:     4.3715

  Electronic Dipole Moment: [e a0]
     X:     1.0075      Y:     0.2061      Z:    -4.5141

  Dipole Moment: [e a0]
     X:     0.5928      Y:    -0.2486      Z:    -0.1425     Total:     0.6584

  Dipole Moment: [D]
     X:     1.5066      Y:    -0.6319      Z:    -0.3623     Total:     1.6735


*** tstop() called on wr86 at Thu Dec  6 15:25:03 2018
Module time:
	user time   =      11.79 seconds =       0.20 minutes
	system time =       0.29 seconds =       0.00 minutes
	total time  =          0 seconds =       0.00 minutes
Total time:
	user time   =      48.52 seconds =       0.81 minutes
	system time =       3.00 seconds =       0.05 minutes
	total time  =          4 seconds =       0.07 minutes

*** tstart() called on wr86
*** at Thu Dec  6 15:25:03 2018


         ------------------------------------------------------------
                                   SCF GRAD                          
                          Rob Parrish, Justin Turney,                
                       Andy Simmonett, and Alex Sokolov              
         ------------------------------------------------------------

  ==> Geometry <==

    Molecular point group: c1
    Full point group: C1

    Geometry (in Angstrom), charge = 0, multiplicity = 1:

       Center              X                  Y                   Z               Mass       
    ------------   -----------------  -----------------  -----------------  -----------------
         C           -0.657578936889    -0.468104533195     0.775464676678    12.000000000000
         H           -0.326175757021    -1.500237400214     0.874697257139     1.007825032070
         H           -1.406153403155    -0.457495406934    -0.008877112093     1.007825032070
         C           -1.281892207530    -0.007929940584     2.092245897377    12.000000000000
         H           -1.651754125321     1.010651470126     2.015122415675     1.007825032070
         H           -0.559192709681    -0.035587015200     2.903409053566     1.007825032070
         H           -2.117528193597    -0.641636005682     2.372939966852     1.007825032070
         C            1.161830062624    -0.033491702961    -0.959221563567    12.000000000000
         H            1.491686788197    -1.069139117902    -0.886136027017     1.007825032070
         H            2.040032365414     0.576952804076    -1.161784146568     1.007825032070
         O            0.216473217550     0.111478683340    -1.988971501542    15.994914619560
         H            0.587308632468    -0.188057935253    -2.806628057675     1.007825032070
         C            0.526354488080     0.401723802999     0.350139768743    12.000000000000
         H            0.205484699680     1.435187597722     0.247538489755     1.007825032070
         H            1.292731071627     0.383697802393     1.123033316502     1.007825032070

  Nuclear repulsion =  188.674756032154647

  ==> Basis Set <==

  Basis Set: 6-31G(D)
    Blend: 6-31G(D)
    Number of shells: 50
    Number of basis function: 95
    Number of Cartesian functions: 95
    Spherical Harmonics?: false
    Max angular momentum: 2

  ==> DFJKGrad: Density-Fitted SCF Gradients <==

    Gradient:                    1
    J tasked:                  Yes
    K tasked:                  Yes
    wK tasked:                  No
    OpenMP threads:             16
    Integrals threads:          16
    Memory (MB):             71525
    Schwarz Cutoff:          0E+00
    Fitting Condition:       1E-12

   => Auxiliary Basis Set <=

  Basis Set: (6-31G(D) AUX)
    Blend: CC-PVDZ-JKFIT
    Number of shells: 210
    Number of basis function: 655
    Number of Cartesian functions: 655
    Spherical Harmonics?: false
    Max angular momentum: 3


  -Total Gradient:
     Atom            X                  Y                   Z
    ------   -----------------  -----------------  -----------------
       1       -0.000002968987    -0.000000122934    -0.000000376488
       2        0.000000120918    -0.000000922680    -0.000000014447
       3        0.000000549301     0.000002049097     0.000002618606
       4        0.000004641444    -0.000002375701    -0.000002835944
       5        0.000000339189    -0.000000490215    -0.000001119425
       6        0.000000151749     0.000000308258     0.000000904065
       7        0.000001400346    -0.000000416204    -0.000000996030
       8       -0.000015487116    -0.000006387888    -0.000002920688
       9        0.000005190362    -0.000001167332     0.000004423322
      10        0.000001619350    -0.000000499435     0.000005389300
      11        0.000007372292     0.000001590063    -0.000004238821
      12       -0.000004318772     0.000001480998    -0.000003687907
      13        0.000003951355     0.000003492638     0.000003551457
      14       -0.000000649281     0.000001461991    -0.000001029849
      15       -0.000001912149     0.000001999342     0.000000332852


*** tstop() called on wr86 at Thu Dec  6 15:25:04 2018
Module time:
	user time   =      15.26 seconds =       0.25 minutes
	system time =       0.62 seconds =       0.01 minutes
	total time  =          1 seconds =       0.02 minutes
Total time:
	user time   =      63.80 seconds =       1.06 minutes
	system time =       3.62 seconds =       0.06 minutes
	total time  =          5 seconds =       0.08 minutes

			-----------------------------------------
			 OPTKING 2.0: for geometry optimizations 
			  - R.A. King,  Bethel University        
			-----------------------------------------

	Previous internal coordinate definitions found.
	---Fragment 1 Geometry and Gradient---
	 C          -1.2426441015       -0.8845893693        1.4654158646
	 H          -0.6163828520       -2.8350378207        1.6529382652
	 H          -2.6572448328       -0.8645410262       -0.0167753107
	 C          -2.4224252041       -0.0149854160        3.9537717487
	 H          -3.1213629357        1.9098544943        3.8080294899
	 H          -1.0567210768       -0.0672497126        5.4866479630
	 H          -4.0015483646       -1.2125163277        4.4842066671
	 C           2.1955406313       -0.0632901463       -1.8126660559
	 H           2.8188795057       -2.0203801308       -1.6745544075
	 H           3.8551024729        1.0902827913       -2.1954538625
	 O           0.4090750963        0.2106641812       -3.7586114240
	 H           1.1098524708       -0.3553779947       -5.3037583859
	 C           0.9946658313        0.7591479687        0.6616682712
	 H           0.3883098069        2.7121115090        0.4677799530
	 H           2.4429076888        0.7250837643        2.1222254063
	            -0.0000029690       -0.0000001229       -0.0000003765
	             0.0000001209       -0.0000009227       -0.0000000144
	             0.0000005493        0.0000020491        0.0000026186
	             0.0000046414       -0.0000023757       -0.0000028359
	             0.0000003392       -0.0000004902       -0.0000011194
	             0.0000001517        0.0000003083        0.0000009041
	             0.0000014003       -0.0000004162       -0.0000009960
	            -0.0000154871       -0.0000063879       -0.0000029207
	             0.0000051904       -0.0000011673        0.0000044233
	             0.0000016193       -0.0000004994        0.0000053893
	             0.0000073723        0.0000015901       -0.0000042388
	            -0.0000043188        0.0000014810       -0.0000036879
	             0.0000039514        0.0000034926        0.0000035515
	            -0.0000006493        0.0000014620       -0.0000010298
	            -0.0000019121        0.0000019993        0.0000003329

	---Fragment 1 Intrafragment Coordinates---
	 - Coordinate -           - BOHR/RAD -       - ANG/DEG -
	 R(1,2)           =         2.057089	       1.088565
	 R(1,3)           =         2.048997	       1.084282
	 R(1,4)           =         2.887907	       1.528215
	 R(1,13)          =         2.890232	       1.529445
	 R(4,5)           =         2.052989	       1.086395
	 R(4,6)           =         2.053677	       1.086759
	 R(4,7)           =         2.051602	       1.085661
	 R(8,9)           =         2.058598	       1.089363
	 R(8,10)          =         2.057037	       1.088537
	 R(8,11)          =         2.655789	       1.405383
	 R(8,13)          =         2.870685	       1.519101
	 R(11,12)         =         1.788567	       0.946469
	 R(13,14)         =         2.054100	       1.086983
	 R(13,15)         =         2.057132	       1.088587
	 B(1,4,5)         =         1.939317	     111.114701
	 B(1,4,6)         =         1.943145	     111.334009
	 B(1,4,7)         =         1.940623	     111.189485
	 B(1,13,8)        =         1.982947	     113.614492
	 B(1,13,14)       =         1.916078	     109.783203
	 B(1,13,15)       =         1.915703	     109.761678
	 B(2,1,3)         =         1.860221	     106.582825
	 B(2,1,4)         =         1.908513	     109.349721
	 B(2,1,13)        =         1.905960	     109.203470
	 B(3,1,4)         =         1.915913	     109.773734
	 B(3,1,13)        =         1.904660	     109.128972
	 B(4,1,13)        =         1.965570	     112.618884
	 B(5,4,6)         =         1.878896	     107.652797
	 B(5,4,7)         =         1.879244	     107.672750
	 B(6,4,7)         =         1.879706	     107.699213
	 B(8,11,12)       =         1.914306	     109.681628
	 B(8,13,14)       =         1.890744	     108.331660
	 B(8,13,15)       =         1.888852	     108.223265
	 B(9,8,10)        =         1.876890	     107.537900
	 B(9,8,11)        =         1.929337	     110.542856
	 B(9,8,13)        =         1.918999	     109.950531
	 B(10,8,11)       =         1.926760	     110.395198
	 B(10,8,13)       =         1.914760	     109.707678
	 B(11,8,13)       =         1.897167	     108.699645
	 B(14,13,15)      =         1.865629	     106.892677
	 D(1,13,8,9)      =        -1.005132	     -57.589799
	 D(1,13,8,10)     =        -3.065838	    -175.659550
	 D(1,13,8,11)     =         1.108983	      63.540056
	 D(2,1,4,5)       =        -3.110216	    -178.202231
	 D(2,1,4,6)       =         1.078794	      61.810337
	 D(2,1,4,7)       =        -1.017289	     -58.286377
	 D(2,1,13,8)      =         1.020910	      58.493842
	 D(2,1,13,14)     =         3.140953	     179.963349
	 D(2,1,13,15)     =        -1.096417	     -62.820079
	 D(3,1,4,5)       =        -1.075241	     -61.606792
	 D(3,1,4,6)       =         3.113768	     178.405776
	 D(3,1,4,7)       =         1.017685	      58.309062
	 D(3,1,13,8)      =        -1.006252	     -57.654001
	 D(3,1,13,14)     =         1.113791	      63.815506
	 D(3,1,13,15)     =        -3.123579	    -178.967921
	 D(4,1,13,8)      =        -3.138515	    -179.823677
	 D(4,1,13,14)     =        -1.018472	     -58.354170
	 D(4,1,13,15)     =         1.027343	      58.862402
	 D(5,4,1,13)      =         1.050658	      60.198298
	 D(6,4,1,13)      =        -1.043517	     -59.789134
	 D(7,4,1,13)      =        -3.139600	    -179.885849
	 D(9,8,11,12)     =        -0.995479	     -57.036750
	 D(9,8,13,14)     =        -3.139250	    -179.865779
	 D(9,8,13,15)     =         1.127135	      64.580077
	 D(10,8,11,12)    =         1.078995	      61.821882
	 D(10,8,13,14)    =         1.083229	      62.064471
	 D(10,8,13,15)    =        -0.933571	     -53.489673
	 D(11,8,13,14)    =        -1.025135	     -58.735924
	 D(11,8,13,15)    =        -3.041936	    -174.290068
	 D(12,11,8,13)    =        -3.103234	    -177.802237

	Current energy   :      -232.1452526868

	Energy change for the previous step:
		Projected    :        -0.0000000436
		Actual       :        -0.0000000055
	Energy ratio indicates iffy step: Trust radius decreased to 1.250e-01.


	Performing BFGS update.
	Previous computed or guess Hessian on step 1.
	Steps to be used in Hessian update: 1
	Taking RFO optimization step.
	Going to follow RFO solution 1.
	Using RFO vector 1.
	Norm of target step-size    0.00211
	Projected energy change by RFO approximation:         0.0000000239

	Back-transformation to cartesian coordinates...
	Could not converge backtransformation.
	Using first guess instead.

	--- Internal Coordinate Step in ANG or DEG, aJ/ANG or AJ/DEG ---
	 ---------------------------------------------------------------------------
	   Coordinate                Previous        Force       Change         New 
	   ----------                --------       ------       ------       ------
	    1 R(1,2)          =      1.088565    -0.000007    -0.000003     1.088562
	    2 R(1,3)          =      1.084282     0.000019    -0.000002     1.084281
	    3 R(1,4)          =      1.528215     0.000058     0.000004     1.528219
	    4 R(1,13)         =      1.529445     0.000022     0.000000     1.529445
	    5 R(4,5)          =      1.086395     0.000004    -0.000001     1.086394
	    6 R(4,6)          =      1.086759    -0.000006    -0.000003     1.086756
	    7 R(4,7)          =      1.085661     0.000009    -0.000001     1.085660
	    8 R(8,9)          =      1.089363    -0.000025    -0.000008     1.089355
	    9 R(8,10)         =      1.088537    -0.000000    -0.000005     1.088532
	   10 R(8,11)         =      1.405383    -0.000034     0.000012     1.405395
	   11 R(8,13)         =      1.519101     0.000000    -0.000003     1.519098
	   12 R(11,12)        =      0.946469    -0.000008    -0.000003     0.946466
	   13 R(13,14)        =      1.086983    -0.000014    -0.000005     1.086978
	   14 R(13,15)        =      1.088587     0.000009    -0.000002     1.088586
	   15 B(1,4,5)        =    111.114701     0.000000     0.000184   111.114884
	   16 B(1,4,6)        =    111.334009    -0.000000    -0.000475   111.333535
	   17 B(1,4,7)        =    111.189485     0.000000    -0.000024   111.189461
	   18 B(1,13,8)       =    113.614492     0.000000     0.000495   113.614987
	   19 B(1,13,14)      =    109.783203    -0.000000    -0.000746   109.782457
	   20 B(1,13,15)      =    109.761678     0.000000     0.000686   109.762364
	   21 B(2,1,3)        =    106.582825    -0.000000     0.000340   106.583165
	   22 B(2,1,4)        =    109.349721     0.000000     0.000213   109.349935
	   23 B(2,1,13)       =    109.203470    -0.000000     0.000217   109.203687
	   24 B(3,1,4)        =    109.773734    -0.000000    -0.000580   109.773153
	   25 B(3,1,13)       =    109.128972    -0.000000    -0.000277   109.128695
	   26 B(4,1,13)       =    112.618884     0.000000     0.000104   112.618988
	   27 B(5,4,6)        =    107.652797    -0.000000     0.000338   107.653135
	   28 B(5,4,7)        =    107.672750    -0.000000    -0.000096   107.672654
	   29 B(6,4,7)        =    107.699213    -0.000000     0.000093   107.699305
	   30 B(8,11,12)      =    109.681628    -0.000001    -0.000710   109.680917
	   31 B(8,13,14)      =    108.331660    -0.000000    -0.000631   108.331029
	   32 B(8,13,15)      =    108.223265    -0.000000    -0.000670   108.222595
	   33 B(9,8,10)       =    107.537900    -0.000000     0.001276   107.539176
	   34 B(9,8,11)       =    110.542856    -0.000000    -0.001778   110.541077
	   35 B(9,8,13)       =    109.950531     0.000000     0.000137   109.950668
	   36 B(10,8,11)      =    110.395198     0.000000     0.000082   110.395280
	   37 B(10,8,13)      =    109.707678     0.000001     0.001586   109.709264
	   38 B(11,8,13)      =    108.699645    -0.000001    -0.001250   108.698395
	   39 B(14,13,15)     =    106.892677     0.000000     0.000888   106.893564
	   40 D(1,13,8,9)     =    -57.589799     0.000000    -0.011154   -57.600954
	   41 D(1,13,8,10)    =   -175.659550    -0.000000    -0.013750  -175.673300
	   42 D(1,13,8,11)    =     63.540056    -0.000000    -0.014041    63.526015
	   43 D(2,1,4,5)      =   -178.202231     0.000000    -0.006037  -178.208268
	   44 D(2,1,4,6)      =     61.810337     0.000000    -0.006270    61.804068
	   45 D(2,1,4,7)      =    -58.286377     0.000000    -0.006051   -58.292428
	   46 D(2,1,13,8)     =     58.493842     0.000000     0.037957    58.531800
	   47 D(2,1,13,14)    =    179.963349    -0.000000     0.036651   180.000000
	   48 D(2,1,13,15)    =    -62.820079     0.000000     0.037981   -62.782098
	   49 D(3,1,4,5)      =    -61.606792    -0.000000    -0.005835   -61.612627
	   50 D(3,1,4,6)      =    178.405776    -0.000000    -0.006068   178.399708
	   51 D(3,1,4,7)      =     58.309062    -0.000000    -0.005849    58.303213
	   52 D(3,1,13,8)     =    -57.654001     0.000000     0.037584   -57.616417
	   53 D(3,1,13,14)    =     63.815506     0.000000     0.036564    63.852070
	   54 D(3,1,13,15)    =   -178.967921     0.000000     0.037607  -178.930314
	   55 D(4,1,13,8)     =   -179.823677     0.000000     0.038451  -179.785226
	   56 D(4,1,13,14)    =    -58.354170     0.000000     0.037431   -58.316739
	   57 D(4,1,13,15)    =     58.862402     0.000000     0.038474    58.900876
	   58 D(5,4,1,13)     =     60.198298    -0.000000    -0.006534    60.191764
	   59 D(6,4,1,13)     =    -59.789134    -0.000000    -0.006766   -59.795900
	   60 D(7,4,1,13)     =   -179.885849    -0.000000    -0.006548  -179.892396
	   61 D(9,8,11,12)    =    -57.036750     0.000000     0.001537   -57.035213
	   62 D(9,8,13,14)    =   -179.865779     0.000000    -0.010072  -179.875851
	   63 D(9,8,13,15)    =     64.580077     0.000000    -0.010434    64.569643
	   64 D(10,8,11,12)   =     61.821882    -0.000000     0.002050    61.823932
	   65 D(10,8,13,14)   =     62.064471    -0.000000    -0.012668    62.051803
	   66 D(10,8,13,15)   =    -53.489673    -0.000000    -0.013030   -53.502704
	   67 D(11,8,13,14)   =    -58.735924    -0.000000    -0.012958   -58.748882
	   68 D(11,8,13,15)   =   -174.290068    -0.000000    -0.013321  -174.303388
	   69 D(12,11,8,13)   =   -177.802237     0.000000     0.003263  -177.798974
	 ---------------------------------------------------------------------------
	Successfully symmetrized geometry.

  ==> Convergence Check <==

  Measures of convergence in internal coordinates in au.
  Criteria marked as inactive (o), active & met (*), and active & unmet ( ).
  ---------------------------------------------------------------------------------------------
   Step     Total Energy     Delta E     MAX Force     RMS Force      MAX Disp      RMS Disp   
  ---------------------------------------------------------------------------------------------
    Convergence Criteria             o    1.50e-05 *    1.00e-05 *    6.00e-05 *    4.00e-05 *
  ---------------------------------------------------------------------------------------------
      2    -232.14525269   -5.46e-09 o    1.03e-05 *    2.70e-06 *    6.72e-04      2.53e-04    ~
  ---------------------------------------------------------------------------------------------

	Writing optimization data to binary file.
	Structure for next step:
	Cartesian Geometry (in Angstrom)
	    C    -0.6573807797  -0.4682794456   0.7755791465
	    H    -0.3259129927  -1.5003536300   0.8751693447
	    H    -1.4057786911  -0.4579430186  -0.0089324686
	    C    -1.2820419366  -0.0077935569   2.0920916979
	    H    -1.6518778284   1.0107706457   2.0146367672
	    H    -0.5595540931  -0.0352731294   2.9034458893
	    H    -2.1177556682  -0.6414290240   2.3727110528
	    C     1.1618132163  -0.0334142284  -0.9592762841
	    H     1.4917627140  -1.0690403647  -0.8864295993
	    H     2.0399017398   0.5771432703  -1.1619648862
	    O     0.2161866707   0.1116003622  -1.9887889026
	    H     0.5868545511  -0.1878197273  -2.8065611700
	    C     0.5265709719   0.4015378925   0.3502821304
	    H     0.2057683101   1.4350454402   0.2479635665
	    H     1.2930698083   0.3832616168   1.1230461494
			--------------------------
			 OPTKING Finished Execution 
			--------------------------

    Structure for next step:
    Molecular point group: c1
    Full point group: C1

    Geometry (in Angstrom), charge = 0, multiplicity = 1:

    C           -0.657359615136    -0.468282255632     0.775535091759
    H           -0.325891828159    -1.500356440072     0.875125289954
    H           -1.405757526598    -0.457945828710    -0.008976523424
    C           -1.282020772070    -0.007796367000     2.092047643067
    H           -1.651856663868     1.010767835650     2.014592712406
    H           -0.559532928559    -0.035275939431     2.903401834506
    H           -2.117734503728    -0.641431834110     2.372666998054
    C            1.161834380845    -0.033417038460    -0.959320338854
    H            1.491783878540    -1.069043174785    -0.886473654135
    H            2.039922904318     0.577140460213    -1.162008940995
    O            0.216207835173     0.111597552161    -1.988832957423
    H            0.586875715626    -0.187822537386    -2.806605224744
    C            0.526592136385     0.401535082383     0.350238075591
    H            0.205789474568     1.435042630080     0.247919511683
    H            1.293090972817     0.383258806696     1.123002094580

gradient() will perform analytic gradient computation.

*** tstart() called on wr86
*** at Thu Dec  6 15:25:05 2018

   => Loading Basis Set <=

    Name: 6-31G(D)
    Role: ORBITAL
    Keyword: BASIS
    atoms 1, 4, 8, 13               entry C          line   111 file /usr/local/hpc1/software_molmod/psi4/psi4conda/share/psi4/basis/6-31g_d_.gbs 
    atoms 2-3, 5-7, 9-10, 12, 14-15 entry H          line    44 file /usr/local/hpc1/software_molmod/psi4/psi4conda/share/psi4/basis/6-31g_d_.gbs 
    atoms 11                        entry O          line   145 file /usr/local/hpc1/software_molmod/psi4/psi4conda/share/psi4/basis/6-31g_d_.gbs 


         ---------------------------------------------------------
                                   SCF
            by Justin Turney, Rob Parrish, Andy Simmonett
                             and Daniel Smith
                              RHF Reference
                       16 Threads,  95367 MiB Core
         ---------------------------------------------------------

  ==> Geometry <==

    Molecular point group: c1
    Full point group: C1

    Geometry (in Angstrom), charge = 0, multiplicity = 1:

       Center              X                  Y                   Z               Mass       
    ------------   -----------------  -----------------  -----------------  -----------------
         C           -0.657359615136    -0.468282255632     0.775535091759    12.000000000000
         H           -0.325891828159    -1.500356440072     0.875125289954     1.007825032070
         H           -1.405757526598    -0.457945828710    -0.008976523424     1.007825032070
         C           -1.282020772070    -0.007796367000     2.092047643067    12.000000000000
         H           -1.651856663868     1.010767835650     2.014592712406     1.007825032070
         H           -0.559532928559    -0.035275939431     2.903401834506     1.007825032070
         H           -2.117734503728    -0.641431834110     2.372666998054     1.007825032070
         C            1.161834380845    -0.033417038460    -0.959320338854    12.000000000000
         H            1.491783878540    -1.069043174785    -0.886473654135     1.007825032070
         H            2.039922904318     0.577140460213    -1.162008940995     1.007825032070
         O            0.216207835173     0.111597552161    -1.988832957423    15.994914619560
         H            0.586875715626    -0.187822537386    -2.806605224744     1.007825032070
         C            0.526592136385     0.401535082383     0.350238075591    12.000000000000
         H            0.205789474568     1.435042630080     0.247919511683     1.007825032070
         H            1.293090972817     0.383258806696     1.123002094580     1.007825032070

  Running in c1 symmetry.

  Rotational constants: A =      0.42610  B =      0.07903  C =      0.07305 [cm^-1]
  Rotational constants: A =  12774.10003  B =   2369.38655  C =   2190.12987 [MHz]
  Nuclear repulsion =  188.675964834012092

  Charge       = 0
  Multiplicity = 1
  Electrons    = 42
  Nalpha       = 21
  Nbeta        = 21

  ==> Algorithm <==

  SCF Algorithm Type is DF.
  DIIS enabled.
  MOM disabled.
  Fractional occupation disabled.
  Guess Type is READ.
  Energy threshold   = 1.00e-08
  Density threshold  = 1.00e-08
  Integral threshold = 0.00e+00

  ==> Primary Basis <==

  Basis Set: 6-31G(D)
    Blend: 6-31G(D)
    Number of shells: 50
    Number of basis function: 95
    Number of Cartesian functions: 95
    Spherical Harmonics?: false
    Max angular momentum: 2

   => Loading Basis Set <=

    Name: (6-31G(D) AUX)
    Role: JKFIT
    Keyword: DF_BASIS_SCF
    atoms 1, 4, 8, 13               entry C          line   121 file /usr/local/hpc1/software_molmod/psi4/psi4conda/share/psi4/basis/cc-pvdz-jkfit.gbs 
    atoms 2-3, 5-7, 9-10, 12, 14-15 entry H          line    51 file /usr/local/hpc1/software_molmod/psi4/psi4conda/share/psi4/basis/cc-pvdz-jkfit.gbs 
    atoms 11                        entry O          line   221 file /usr/local/hpc1/software_molmod/psi4/psi4conda/share/psi4/basis/cc-pvdz-jkfit.gbs 

  Reading orbitals from file 180, no projection.

  ==> Pre-Iterations <==

   -------------------------------------------------------
    Irrep   Nso     Nmo     Nalpha   Nbeta   Ndocc  Nsocc
   -------------------------------------------------------
     A         95      95       0       0       0       0
   -------------------------------------------------------
    Total      95      95      21      21      21       0
   -------------------------------------------------------

  ==> Integral Setup <==

  ==> DiskDFJK: Density-Fitted J/K Matrices <==

    J tasked:                  Yes
    K tasked:                  Yes
    wK tasked:                  No
    OpenMP threads:             16
    Integrals threads:          16
    Memory (MB):             71525
    Algorithm:                Core
    Integral Cache:           NONE
    Schwarz Cutoff:          1E-12
    Fitting Condition:       1E-12

   => Auxiliary Basis Set <=

  Basis Set: (6-31G(D) AUX)
    Blend: CC-PVDZ-JKFIT
    Number of shells: 210
    Number of basis function: 655
    Number of Cartesian functions: 655
    Spherical Harmonics?: false
    Max angular momentum: 3

  Minimum eigenvalue in the overlap matrix is 4.1119660291E-03.
  Using Symmetric Orthogonalization.

  SCF Guess: Orbitals guess was supplied from a previous computation.

  ==> Iterations <==

                           Total Energy        Delta E     RMS |[F,P]|

   @DF-RHF iter   0:  -232.14525282756588   -2.32145e+02   1.82928e-05 
   @DF-RHF iter   1:  -232.14525267690689    1.50659e-07   4.76690e-06 
   @DF-RHF iter   2:  -232.14525268889599   -1.19891e-08   1.52539e-06 DIIS
   @DF-RHF iter   3:  -232.14525269043304   -1.53705e-09   1.11637e-07 DIIS
   @DF-RHF iter   4:  -232.14525269045254   -1.94973e-11   5.30669e-08 DIIS
   @DF-RHF iter   5:  -232.14525269045575   -3.21165e-12   1.53129e-08 DIIS
   @DF-RHF iter   6:  -232.14525269045609   -3.41061e-13   4.99642e-09 DIIS

  ==> Post-Iterations <==

    Orbital Energies [Eh]
    ---------------------

    Doubly Occupied:                                                      

       1A    -20.553190     2A    -11.268151     3A    -11.212124  
       4A    -11.208590     5A    -11.204662     6A     -1.359907  
       7A     -1.064580     8A     -0.973532     9A     -0.856017  
      10A     -0.786327    11A     -0.705149    12A     -0.637874  
      13A     -0.610164    14A     -0.591151    15A     -0.545794  
      16A     -0.528153    17A     -0.512722    18A     -0.475093  
      19A     -0.464898    20A     -0.457002    21A     -0.430112  

    Virtual:                                                              

      22A      0.225081    23A      0.249617    24A      0.276021  
      25A      0.290211    26A      0.307998    27A      0.326777  
      28A      0.338986    29A      0.344614    30A      0.351808  
      31A      0.363391    32A      0.396695    33A      0.431315  
      34A      0.436379    35A      0.453541    36A      0.710713  
      37A      0.722976    38A      0.756370    39A      0.760232  
      40A      0.808337    41A      0.846057    42A      0.879797  
      43A      0.934357    44A      0.963634    45A      1.007495  
      46A      1.042855    47A      1.102480    48A      1.129625  
      49A      1.139926    50A      1.154204    51A      1.175700  
      52A      1.191808    53A      1.200612    54A      1.216257  
      55A      1.226600    56A      1.235602    57A      1.260870  
      58A      1.271798    59A      1.298226    60A      1.330274  
      61A      1.481412    62A      1.545206    63A      1.679730  
      64A      1.697655    65A      1.741863    66A      1.863177  
      67A      1.881130    68A      1.995187    69A      2.024780  
      70A      2.050127    71A      2.134891    72A      2.189622  
      73A      2.236716    74A      2.287620    75A      2.311154  
      76A      2.365596    77A      2.406976    78A      2.464161  
      79A      2.581321    80A      2.617290    81A      2.641959  
      82A      2.712524    83A      2.730653    84A      2.773075  
      85A      2.796583    86A      2.869889    87A      2.963179  
      88A      3.061074    89A      3.086737    90A      3.238117  
      91A      4.177656    92A      4.578904    93A      4.708097  
      94A      4.816338    95A      4.961317  

    Final Occupation by Irrep:
              A 
    DOCC [    21 ]

  Energy converged.

  @DF-RHF Final Energy:  -232.14525269045609

   => Energetics <=

    Nuclear Repulsion Energy =            188.6759648340120918
    One-Electron Energy =                -688.7520472431795042
    Two-Electron Energy =                 267.9308297187113226
    Total Energy =                       -232.1452526904560614



Properties will be evaluated at   0.000000,   0.000000,   0.000000 [a0]

Properties computed using the SCF density matrix

  Nuclear Dipole Moment: [e a0]
     X:    -0.4146      Y:    -0.4548      Z:     4.3709

  Electronic Dipole Moment: [e a0]
     X:     1.0073      Y:     0.2062      Z:    -4.5136

  Dipole Moment: [e a0]
     X:     0.5928      Y:    -0.2486      Z:    -0.1427     Total:     0.6584

  Dipole Moment: [D]
     X:     1.5067      Y:    -0.6318      Z:    -0.3627     Total:     1.6736


*** tstop() called on wr86 at Thu Dec  6 15:25:05 2018
Module time:
	user time   =      11.26 seconds =       0.19 minutes
	system time =       0.33 seconds =       0.01 minutes
	total time  =          0 seconds =       0.00 minutes
Total time:
	user time   =      75.90 seconds =       1.27 minutes
	system time =       3.97 seconds =       0.07 minutes
	total time  =          6 seconds =       0.10 minutes

*** tstart() called on wr86
*** at Thu Dec  6 15:25:05 2018


         ------------------------------------------------------------
                                   SCF GRAD                          
                          Rob Parrish, Justin Turney,                
                       Andy Simmonett, and Alex Sokolov              
         ------------------------------------------------------------

  ==> Geometry <==

    Molecular point group: c1
    Full point group: C1

    Geometry (in Angstrom), charge = 0, multiplicity = 1:

       Center              X                  Y                   Z               Mass       
    ------------   -----------------  -----------------  -----------------  -----------------
         C           -0.657359615136    -0.468282255632     0.775535091759    12.000000000000
         H           -0.325891828159    -1.500356440072     0.875125289954     1.007825032070
         H           -1.405757526598    -0.457945828710    -0.008976523424     1.007825032070
         C           -1.282020772070    -0.007796367000     2.092047643067    12.000000000000
         H           -1.651856663868     1.010767835650     2.014592712406     1.007825032070
         H           -0.559532928559    -0.035275939431     2.903401834506     1.007825032070
         H           -2.117734503728    -0.641431834110     2.372666998054     1.007825032070
         C            1.161834380845    -0.033417038460    -0.959320338854    12.000000000000
         H            1.491783878540    -1.069043174785    -0.886473654135     1.007825032070
         H            2.039922904318     0.577140460213    -1.162008940995     1.007825032070
         O            0.216207835173     0.111597552161    -1.988832957423    15.994914619560
         H            0.586875715626    -0.187822537386    -2.806605224744     1.007825032070
         C            0.526592136385     0.401535082383     0.350238075591    12.000000000000
         H            0.205789474568     1.435042630080     0.247919511683     1.007825032070
         H            1.293090972817     0.383258806696     1.123002094580     1.007825032070

  Nuclear repulsion =  188.675964834012092

  ==> Basis Set <==

  Basis Set: 6-31G(D)
    Blend: 6-31G(D)
    Number of shells: 50
    Number of basis function: 95
    Number of Cartesian functions: 95
    Spherical Harmonics?: false
    Max angular momentum: 2

  ==> DFJKGrad: Density-Fitted SCF Gradients <==

    Gradient:                    1
    J tasked:                  Yes
    K tasked:                  Yes
    wK tasked:                  No
    OpenMP threads:             16
    Integrals threads:          16
    Memory (MB):             71525
    Schwarz Cutoff:          0E+00
    Fitting Condition:       1E-12

   => Auxiliary Basis Set <=

  Basis Set: (6-31G(D) AUX)
    Blend: CC-PVDZ-JKFIT
    Number of shells: 210
    Number of basis function: 655
    Number of Cartesian functions: 655
    Spherical Harmonics?: false
    Max angular momentum: 3


  -Total Gradient:
     Atom            X                  Y                   Z
    ------   -----------------  -----------------  -----------------
       1        0.000000359868    -0.000002174195    -0.000000019306
       2       -0.000000010761     0.000001875178     0.000001348813
       3        0.000000771152    -0.000000120502     0.000001823841
       4        0.000000103693     0.000001387262    -0.000001808319
       5        0.000000379275    -0.000000723784    -0.000000053096
       6       -0.000000512429    -0.000001061619    -0.000001676837
       7        0.000000930415     0.000000810395    -0.000001393570
       8        0.000000559938     0.000000546715     0.000003427752
       9        0.000000854296     0.000003326085     0.000003126757
      10       -0.000000450566    -0.000001405562     0.000003613540
      11       -0.000000106865    -0.000002065728    -0.000007590072
      12       -0.000004818419     0.000001704731    -0.000000362118
      13        0.000001867780     0.000001919434     0.000002645020
      14        0.000000619510    -0.000001889334    -0.000000231601
      15       -0.000000546888    -0.000002129075    -0.000002850800


*** tstop() called on wr86 at Thu Dec  6 15:25:06 2018
Module time:
	user time   =      14.85 seconds =       0.25 minutes
	system time =       0.68 seconds =       0.01 minutes
	total time  =          1 seconds =       0.02 minutes
Total time:
	user time   =      90.77 seconds =       1.51 minutes
	system time =       4.65 seconds =       0.08 minutes
	total time  =          7 seconds =       0.12 minutes

			-----------------------------------------
			 OPTKING 2.0: for geometry optimizations 
			  - R.A. King,  Bethel University        
			-----------------------------------------

	Previous internal coordinate definitions found.
	---Fragment 1 Geometry and Gradient---
	 C          -1.2422296434       -0.8849252160        1.4655489299
	 H          -0.6158463042       -2.8352627734        1.6537471300
	 H          -2.6564967345       -0.8653922000       -0.0169631709
	 C          -2.4226681559       -0.0147329985        3.9533971023
	 H          -3.1215567055        1.9100743933        3.8070284958
	 H          -1.0573639973       -0.0666618646        5.4866343209
	 H          -4.0019382342       -1.2121304994        4.4836908309
	 C           2.1955487916       -0.0631490509       -1.8128527141
	 H           2.8190629799       -2.0201988246       -1.6751924303
	 H           3.8548956214        1.0906374100       -2.1958786624
	 O           0.4085735963        0.2108888107       -3.7583496136
	 H           1.1090343766       -0.3549331572       -5.3037152379
	 C           0.9951149215        0.7587913384        0.6618540442
	 H           0.3888857480        2.7118375599        0.4684999801
	 H           2.4435878035        0.7242541827        2.1221664054
	             0.0000003599       -0.0000021742       -0.0000000193
	            -0.0000000108        0.0000018752        0.0000013488
	             0.0000007712       -0.0000001205        0.0000018238
	             0.0000001037        0.0000013873       -0.0000018083
	             0.0000003793       -0.0000007238       -0.0000000531
	            -0.0000005124       -0.0000010616       -0.0000016768
	             0.0000009304        0.0000008104       -0.0000013936
	             0.0000005599        0.0000005467        0.0000034278
	             0.0000008543        0.0000033261        0.0000031268
	            -0.0000004506       -0.0000014056        0.0000036135
	            -0.0000001069       -0.0000020657       -0.0000075901
	            -0.0000048184        0.0000017047       -0.0000003621
	             0.0000018678        0.0000019194        0.0000026450
	             0.0000006195       -0.0000018893       -0.0000002316
	            -0.0000005469       -0.0000021291       -0.0000028508

	---Fragment 1 Intrafragment Coordinates---
	 - Coordinate -           - BOHR/RAD -       - ANG/DEG -
	 R(1,2)           =         2.057083	       1.088562
	 R(1,3)           =         2.048994	       1.084281
[...]
      15       -0.000000071179    -0.000000044736    -0.000000093837


*** tstop() called on wr86 at Thu Dec  6 15:25:30 2018
Module time:
	user time   =      15.89 seconds =       0.26 minutes
	system time =       0.65 seconds =       0.01 minutes
	total time  =          1 seconds =       0.02 minutes
Total time:
	user time   =     423.99 seconds =       7.07 minutes
	system time =      16.02 seconds =       0.27 minutes
	total time  =         31 seconds =       0.52 minutes

			-----------------------------------------
			 OPTKING 2.0: for geometry optimizations 
			  - R.A. King,  Bethel University        
			-----------------------------------------

	Previous internal coordinate definitions found.
	---Fragment 1 Geometry and Gradient---
	 C          -1.2421625606       -0.8842245968        1.4660084919
	 H          -0.6165296817       -2.8348441498        1.6538308812
	 H          -2.6570840788       -0.8640334008       -0.0158777254
	 C          -2.4211131064       -0.0136386705        3.9544374648
	 H          -3.1193389234        1.9114402211        3.8084383580
	 H          -1.0551127118       -0.0661076420        5.4870411093
	 H          -4.0005919794       -1.2104462731        4.4854547292
	 C           2.1948629203       -0.0641341491       -1.8136271079
	 H           2.8176315487       -2.0214297642       -1.6759806502
	 H           3.8545383416        1.0889561321       -2.1973530675
	 O           0.4073814991        0.2103911325       -3.7585727625
	 H           1.1071841059       -0.3559067543       -5.3040671351
	 C           0.9955295151        0.7585666943        0.6613697330
	 H           0.3899520959        2.7118159097        0.4679620535
	 H           2.4444508886        0.7237105277        2.1212384832
	             0.0000001485       -0.0000001707        0.0000001622
	             0.0000000938       -0.0000000262       -0.0000000166
	             0.0000000238        0.0000000098        0.0000000868
	            -0.0000001153        0.0000000690       -0.0000000351
	             0.0000001346        0.0000000150        0.0000000336
	            -0.0000000330       -0.0000001256        0.0000000454
	            -0.0000000831        0.0000000665       -0.0000000241
	             0.0000001809       -0.0000001070       -0.0000000388
	            -0.0000000652       -0.0000000258       -0.0000001309
	            -0.0000000224       -0.0000000087       -0.0000000989
	             0.0000000775        0.0000000494        0.0000001803
	             0.0000000928       -0.0000000262        0.0000000977
	            -0.0000003573        0.0000002236       -0.0000001929
	            -0.0000000044        0.0000001015        0.0000000252
	            -0.0000000712       -0.0000000447       -0.0000000938

	---Fragment 1 Intrafragment Coordinates---
	 - Coordinate -           - BOHR/RAD -       - ANG/DEG -
	 R(1,2)           =         2.057088	       1.088564
	 R(1,3)           =         2.048999	       1.084284
	 R(1,4)           =         2.887927	       1.528225
	 R(1,13)          =         2.890237	       1.529448
	 R(4,5)           =         2.052989	       1.086395
	 R(4,6)           =         2.053676	       1.086758
	 R(4,7)           =         2.051605	       1.085662
	 R(8,9)           =         2.058590	       1.089359
	 R(8,10)          =         2.057033	       1.088535
	 R(8,11)          =         2.655799	       1.405388
	 R(8,13)          =         2.870687	       1.519102
	 R(11,12)         =         1.788566	       0.946469
	 R(13,14)         =         2.054097	       1.086981
	 R(13,15)         =         2.057135	       1.088589
	 B(1,4,5)         =         1.939320	     111.114845
	 B(1,4,6)         =         1.943141	     111.333758
	 B(1,4,7)         =         1.940628	     111.189821
	 B(1,13,8)        =         1.982958	     113.615134
	 B(1,13,14)       =         1.916064	     109.782357
	 B(1,13,15)       =         1.915712	     109.762193
	 B(2,1,3)         =         1.860216	     106.582553
	 B(2,1,4)         =         1.908518	     109.350040
	 B(2,1,13)        =         1.905962	     109.203558
	 B(3,1,4)         =         1.915911	     109.773592
	 B(3,1,13)        =         1.904653	     109.128573
	 B(4,1,13)        =         1.965577	     112.619254
	 B(5,4,6)         =         1.878895	     107.652736
	 B(5,4,7)         =         1.879241	     107.672597
	 B(6,4,7)         =         1.879705	     107.699183
	 B(8,11,12)       =         1.914252	     109.678584
	 B(8,13,14)       =         1.890734	     108.331072
	 B(8,13,15)       =         1.888855	     108.223435
	 B(9,8,10)        =         1.876922	     107.539701
	 B(9,8,11)        =         1.929287	     110.540005
	 B(9,8,13)        =         1.919018	     109.951615
	 B(10,8,11)       =         1.926744	     110.394274
	 B(10,8,13)       =         1.914805	     109.710259
	 B(11,8,13)       =         1.897139	     108.698037
	 B(14,13,15)      =         1.865631	     106.892755
	 D(1,13,8,9)      =        -1.005277	     -57.598113
	 D(1,13,8,10)     =        -3.066059	    -175.672267
	 D(1,13,8,11)     =         1.108771	      63.527896
	 D(2,1,4,5)       =        -3.110264	    -178.204979
	 D(2,1,4,6)       =         1.078749	      61.807737
	 D(2,1,4,7)       =        -1.017335	     -58.288997
	 D(2,1,13,8)      =         1.021345	      58.518754
	 D(2,1,13,14)     =         3.141371	     179.987325
	 D(2,1,13,15)     =        -1.096000	     -62.796203
	 D(3,1,4,5)       =        -1.075293	     -61.609766
	 D(3,1,4,6)       =         3.113719	     178.402951
	 D(3,1,4,7)       =         1.017635	      58.306217
	 D(3,1,13,8)      =        -1.005809	     -57.628589
	 D(3,1,13,14)     =         1.114218	      63.839981
	 D(3,1,13,15)     =        -3.123154	    -178.943546
	 D(4,1,13,8)      =        -3.138068	    -179.798051
	 D(4,1,13,14)     =        -1.018041	     -58.329480
	 D(4,1,13,15)     =         1.027772	      58.886992
	 D(5,4,1,13)      =         1.050600	      60.194964
	 D(6,4,1,13)      =        -1.043573	     -59.792319
	 D(7,4,1,13)      =        -3.139656	    -179.889053
	 D(9,8,11,12)     =        -0.995443	     -57.034688
	 D(9,8,13,14)     =        -3.139376	    -179.873011
	 D(9,8,13,15)     =         1.127011	      64.572971
	 D(10,8,11,12)    =         1.079029	      61.823795
	 D(10,8,13,14)    =         1.083026	      62.052835
	 D(10,8,13,15)    =        -0.933772	     -53.501183
	 D(11,8,13,14)    =        -1.025329	     -58.747002
	 D(11,8,13,15)    =        -3.042127	    -174.301020
	 D(12,11,8,13)    =        -3.103173	    -177.798728

	Current energy   :      -232.1452526916

	Energy change for the previous step:
		Projected    :        -0.0000000001
		Actual       :        -0.0000000000
	Energy ratio indicates iffy step: Trust radius decreased to 1.953e-03.


	Performing BFGS update.
	Previous computed or guess Hessian on step 1.
	Denominators (dg)(dq) or (dq)(dq) are very small.
	 Skipping Hessian update for step 14.
	Denominators (dg)(dq) or (dq)(dq) are very small.
	 Skipping Hessian update for step 13.
	Denominators (dg)(dq) or (dq)(dq) are very small.
	 Skipping Hessian update for step 12.
	Denominators (dg)(dq) or (dq)(dq) are very small.
	 Skipping Hessian update for step 11.
	Denominators (dg)(dq) or (dq)(dq) are very small.
	 Skipping Hessian update for step 10.
	Denominators (dg)(dq) or (dq)(dq) are very small.
	 Skipping Hessian update for step 9.
	Denominators (dg)(dq) or (dq)(dq) are very small.
	 Skipping Hessian update for step 8.
	Denominators (dg)(dq) or (dq)(dq) are very small.
	 Skipping Hessian update for step 7.
	Denominators (dg)(dq) or (dq)(dq) are very small.
	 Skipping Hessian update for step 6.
	Denominators (dg)(dq) or (dq)(dq) are very small.
	 Skipping Hessian update for step 5.
	Denominators (dg)(dq) or (dq)(dq) are very small.
	 Skipping Hessian update for step 4.
	Denominators (dg)(dq) or (dq)(dq) are very small.
	 Skipping Hessian update for step 3.
	Denominators (dg)(dq) or (dq)(dq) are very small.
	 Skipping Hessian update for step 2.
	Steps to be used in Hessian update: 1
	Taking RFO optimization step.
	Going to follow RFO solution 1.
	Using RFO vector 1.
	Norm of target step-size    0.00017
	Projected energy change by RFO approximation:        -0.0000000001

	Back-transformation to cartesian coordinates...
	Successfully converged to displaced geometry.

	--- Internal Coordinate Step in ANG or DEG, aJ/ANG or AJ/DEG ---
	 ---------------------------------------------------------------------------
	   Coordinate                Previous        Force       Change         New 
	   ----------                --------       ------       ------       ------
	    1 R(1,2)          =      1.088564    -0.000000    -0.000000     1.088564
	    2 R(1,3)          =      1.084284     0.000001     0.000000     1.084284
	    3 R(1,4)          =      1.528225    -0.000001    -0.000000     1.528225
	    4 R(1,13)         =      1.529448    -0.000000    -0.000000     1.529448
	    5 R(4,5)          =      1.086395     0.000000     0.000000     1.086395
	    6 R(4,6)          =      1.086758    -0.000000    -0.000000     1.086758
	    7 R(4,7)          =      1.085662    -0.000000    -0.000000     1.085662
	    8 R(8,9)          =      1.089359     0.000000    -0.000000     1.089359
	    9 R(8,10)         =      1.088535     0.000000    -0.000000     1.088535
	   10 R(8,11)         =      1.405388     0.000003     0.000001     1.405389
	   11 R(8,13)         =      1.519102    -0.000001    -0.000000     1.519102
	   12 R(11,12)        =      0.946469     0.000000     0.000000     0.946469
	   13 R(13,14)        =      1.086981    -0.000001    -0.000000     1.086981
	   14 R(13,15)        =      1.088589     0.000001     0.000000     1.088589
	   15 B(1,4,5)        =    111.114845     0.000000     0.000006   111.114852
	   16 B(1,4,6)        =    111.333758    -0.000000     0.000001   111.333759
	   17 B(1,4,7)        =    111.189821    -0.000000    -0.000024   111.189797
	   18 B(1,13,8)       =    113.615134    -0.000000    -0.000032   113.615103
	   19 B(1,13,14)      =    109.782357    -0.000000    -0.000048   109.782309
	   20 B(1,13,15)      =    109.762193     0.000000     0.000059   109.762252
	   21 B(2,1,3)        =    106.582553    -0.000000    -0.000005   106.582548
	   22 B(2,1,4)        =    109.350040    -0.000000    -0.000040   109.350000
	   23 B(2,1,13)       =    109.203558    -0.000000    -0.000031   109.203528
	   24 B(3,1,4)        =    109.773592     0.000000     0.000038   109.773630
	   25 B(3,1,13)       =    109.128573     0.000000     0.000066   109.128639
	   26 B(4,1,13)       =    112.619254    -0.000000    -0.000027   112.619227
	   27 B(5,4,6)        =    107.652736    -0.000000     0.000007   107.652744
	   28 B(5,4,7)        =    107.672597     0.000000    -0.000003   107.672594
	   29 B(6,4,7)        =    107.699183     0.000000     0.000014   107.699197
	   30 B(8,11,12)      =    109.678584     0.000000     0.000109   109.678694
	   31 B(8,13,14)      =    108.331072    -0.000000    -0.000054   108.331018
	   32 B(8,13,15)      =    108.223435     0.000000     0.000069   108.223504
	   33 B(9,8,10)       =    107.539701     0.000000    -0.000025   107.539676
	   34 B(9,8,11)       =    110.540005     0.000000     0.000072   110.540077
	   35 B(9,8,13)       =    109.951615    -0.000000    -0.000058   109.951557
	   36 B(10,8,11)      =    110.394274     0.000000     0.000039   110.394313
	   37 B(10,8,13)      =    109.710259    -0.000000    -0.000074   109.710184
	   38 B(11,8,13)      =    108.698037     0.000000     0.000044   108.698082
	   39 B(14,13,15)     =    106.892755    -0.000000     0.000008   106.892763
	   40 D(1,13,8,9)     =    -57.598113    -0.000000    -0.000430   -57.598543
	   41 D(1,13,8,10)    =   -175.672267    -0.000000    -0.000320  -175.672587
	   42 D(1,13,8,11)    =     63.527896    -0.000000    -0.000350    63.527546
	   43 D(2,1,4,5)      =   -178.204979     0.000000     0.003098  -178.201881
	   44 D(2,1,4,6)      =     61.807737     0.000000     0.003084    61.810821
	   45 D(2,1,4,7)      =    -58.288997     0.000000     0.003082   -58.285915
	   46 D(2,1,13,8)     =     58.518754     0.000000     0.001112    58.519866
	   47 D(2,1,13,14)    =    179.987325     0.000000     0.000986   179.988310
	   48 D(2,1,13,15)    =    -62.796203     0.000000     0.001002   -62.795201
	   49 D(3,1,4,5)      =    -61.609766     0.000000     0.003091   -61.606675
	   50 D(3,1,4,6)      =    178.402951     0.000000     0.003077   178.406028
	   51 D(3,1,4,7)      =     58.306217     0.000000     0.003075    58.309291
	   52 D(3,1,13,8)     =    -57.628589     0.000000     0.001099   -57.627491
	   53 D(3,1,13,14)    =     63.839981    -0.000000     0.000972    63.840953
	   54 D(3,1,13,15)    =   -178.943546     0.000000     0.000988  -178.942558
	   55 D(4,1,13,8)     =   -179.798051     0.000000     0.001021  -179.797029
	   56 D(4,1,13,14)    =    -58.329480    -0.000000     0.000895   -58.328586
	   57 D(4,1,13,15)    =     58.886992    -0.000000     0.000911    58.887903
	   58 D(5,4,1,13)     =     60.194964     0.000000     0.003184    60.198148
	   59 D(6,4,1,13)     =    -59.792319     0.000000     0.003170   -59.789149
	   60 D(7,4,1,13)     =   -179.889053     0.000000     0.003168  -179.885886
	   61 D(9,8,11,12)    =    -57.034688    -0.000000    -0.000122   -57.034809
	   62 D(9,8,13,14)    =   -179.873011    -0.000000    -0.000309  -179.873320
	   63 D(9,8,13,15)    =     64.572971    -0.000000    -0.000326    64.572645
	   64 D(10,8,11,12)   =     61.823795     0.000000    -0.000083    61.823712
	   65 D(10,8,13,14)   =     62.052835     0.000000    -0.000198    62.052636
	   66 D(10,8,13,15)   =    -53.501183     0.000000    -0.000215   -53.501399
	   67 D(11,8,13,14)   =    -58.747002     0.000000    -0.000228   -58.747230
	   68 D(11,8,13,15)   =   -174.301020    -0.000000    -0.000246  -174.301265
	   69 D(12,11,8,13)   =   -177.798728     0.000000    -0.000122  -177.798850
	 ---------------------------------------------------------------------------
	Successfully symmetrized geometry.

  ==> Convergence Check <==

  Measures of convergence in internal coordinates in au.
  Criteria marked as inactive (o), active & met (*), and active & unmet ( ).
  ---------------------------------------------------------------------------------------------
   Step     Total Energy     Delta E     MAX Force     RMS Force      MAX Disp      RMS Disp   
  ---------------------------------------------------------------------------------------------
    Convergence Criteria             o    1.50e-05 *    1.00e-05 *    6.00e-05 *    4.00e-05 *
  ---------------------------------------------------------------------------------------------
     15    -232.14525269   -7.93e-12 o    3.15e-07 *    7.76e-08 *    5.56e-05 *    2.07e-05 *  ~
  ---------------------------------------------------------------------------------------------


  **** Optimization is complete! (in 15 steps) ****

  ==> Optimization Summary <==

  Measures of convergence in internal coordinates in au.
  --------------------------------------------------------------------------------------------------------------- ~
   Step         Total Energy             Delta E       MAX Force       RMS Force        MAX Disp        RMS Disp  ~
  --------------------------------------------------------------------------------------------------------------- ~
      1    -232.145252681296   -232.145252681296      0.00005985      0.00000921      0.00075768      0.00026301  ~
      2    -232.145252686752     -0.000000005456      0.00001029      0.00000270      0.00067151      0.00025327  ~
      3    -232.145252690456     -0.000000003704      0.00000910      0.00000204      0.00043009      0.00016743  ~
      4    -232.145252690762     -0.000000000306      0.00000168      0.00000072      0.00030869      0.00013635  ~
      5    -232.145252691338     -0.000000000576      0.00000529      0.00000092      0.00025087      0.00010535  ~
      6    -232.145252691550     -0.000000000212      0.00000082      0.00000034      0.00023793      0.00008968  ~
      7    -232.145252691471      0.000000000080      0.00000105      0.00000030      0.00022017      0.00007954  ~
      8    -232.145252691282      0.000000000189      0.00000162      0.00000033      0.00019746      0.00007088  ~
      9    -232.145252691529     -0.000000000247      0.00000051      0.00000021      0.00017239      0.00006222  ~
     10    -232.145252691585     -0.000000000056      0.00000151      0.00000028      0.00014652      0.00005308  ~
     11    -232.145252691301      0.000000000284      0.00000045      0.00000017      0.00012247      0.00004478  ~
     12    -232.145252691618     -0.000000000318      0.00000106      0.00000020      0.00010081      0.00003695  ~
     13    -232.145252691200      0.000000000418      0.00000045      0.00000012      0.00008223      0.00003033  ~
     14    -232.145252691546     -0.000000000345      0.00000064      0.00000012      0.00006655      0.00002462  ~
     15    -232.145252691554     -0.000000000008      0.00000032      0.00000008      0.00005557      0.00002072  ~
  --------------------------------------------------------------------------------------------------------------- ~

	Writing optimization data to binary file.
	Final energy is   -232.1452526915536
	Final (previous) structure:
	Cartesian Geometry (in Angstrom)
	    C    -0.6573241165  -0.4679115039   0.7757782815
	    H    -0.3262534560  -1.5001349140   0.8751696092
	    H    -1.4060683358  -0.4572267832  -0.0084021304
	    C    -1.2811978753  -0.0072172736   2.0925981792
	    H    -1.6506830641   1.0114906006   2.0153387794
	    H    -0.5583415996  -0.0349826575   2.9036170976
	    H    -2.1170220963  -0.6405405799   2.3736004129
	    C     1.1614714334  -0.0339383300  -0.9597301304
	    H     1.4910263978  -1.0696945600  -0.8868907621
	    H     2.0397338400   0.5762507663  -1.1627891625
	    O     0.2155770045   0.1113341922  -1.9889510427
	    H     0.5858965945  -0.1883377428  -2.8067914407
	    C     0.5268115299   0.4014162058   0.3499817892
	    H     0.2063537616   1.4350311733   0.2476348532
	    H     1.2935476977   0.3829711169   1.1225110593
	Saving final (previous) structure.
	Removing binary optimization data file.
			--------------------------
			 OPTKING Finished Execution 
			--------------------------

    Final optimized geometry and variables:
    Molecular point group: c1
    Full point group: C1

    Geometry (in Angstrom), charge = 0, multiplicity = 1:

    C           -0.657324116451    -0.467911503876     0.775778281506
    H           -0.326253455955    -1.500134913972     0.875169609193
    H           -1.406068335802    -0.457226783174    -0.008402130385
    C           -1.281197875301    -0.007217273578     2.092598179185
    H           -1.650683064132     1.011490600575     2.015338779382
    H           -0.558341599563    -0.034982657455     2.903617097621
    H           -2.117022096344    -0.640540579924     2.373600412860
    C            1.161471433421    -0.033938330002    -0.959730130395
    H            1.491026397753    -1.069694559982    -0.886890762114
    H            2.039733839999     0.576250766265    -1.162789162522
    O            0.215577004508     0.111334192233    -1.988951042744
    H            0.585896594536    -0.188337742783    -2.806791440721
    C            0.526811529878     0.401416205798     0.349981789178
    H            0.206353761610     1.435031173296     0.247634853194
    H            1.293547697739     0.382971116862     1.122511059286

	Removing binary optimization data file.
	Cleaning optimization helper files.

    Psi4 stopped on: Thursday, 06 December 2018 03:25PM
    Psi4 wall time for execution: 0:00:31.12

*** Psi4 exiting successfully. Buy a developer a beer!
