
    -----------------------------------------------------------------------
          Psi4: An Open-Source Ab Initio Electronic Structure Package
                               Psi4 1.2.1 release

                         Git: Rev {HEAD} 406f4de 


    R. M. Parrish, L. A. Burns, D. G. A. Smith, A. C. Simmonett,
    A. E. DePrince III, E. G. Hohenstein, U. Bozkaya, A. Yu. Sokolov,
    R. Di Remigio, R. M. Richard, J. F. Gonthier, A. M. James,
    H. R. McAlexander, A. Kumar, M. Saitow, X. Wang, B. P. Pritchard,
    P. Verma, H. F. Schaefer III, K. Patkowski, R. A. King, E. F. Valeev,
    F. A. Evangelista, J. M. Turney, T. D. Crawford, and C. D. Sherrill,
    J. Chem. Theory Comput. 13(7) pp 3185--3197 (2017).
    (doi: 10.1021/acs.jctc.7b00174)


                         Additional Contributions by
    P. Kraus, H. Kruse, M. H. Lechner, M. C. Schieber, and R. A. Shaw

    -----------------------------------------------------------------------


    Psi4 started on: Thursday, 06 December 2018 03:26PM

    Process ID: 218694
    Host:       wr86
    PSIDATADIR: /usr/local/hpc1/software_molmod/psi4/psi4conda/share/psi4
    Memory:     500.0 MiB
    Threads:    16
    
  ==> Input File <==

--------------------------------------------------------------------------
memory 100 Gb

molecule conf_04 {
0 1
  C    -2.441271851400    -0.630393004300     0.418962525800
  H    -2.094817161800    -1.656687803700     0.524478472200
  H    -3.146682556900    -0.635422508600    -0.407427234900
  C    -3.179853499400    -0.209186360800     1.691661269400
  H    -3.523821908000     0.818964707200     1.620495447000
  H    -2.551654388600    -0.286702145200     2.573359224000
  H    -4.049400511600    -0.837439001100     1.857881405300
  C    -0.102291660300     0.235331524400     1.017682434800
  H     0.235509257700    -0.791516256000     1.154803751600
  H    -0.407774629600     0.611991639200     1.991013303500
  O     0.930011223400     1.028990019000     0.489959120100
  H     1.659876118600     1.043135638000     1.092472933900
  C    -1.262476453600     0.270538007400     0.036275967200
  H    -0.878646288100    -0.029238569600    -0.934364435100
  H    -1.596705690400     1.299634114100    -0.066254184600
}
set globals {
  reference rhf
  g_convergence gau_tight
  basis 6-31G(d)
}
optimize('scf')

--------------------------------------------------------------------------

  Memory set to  93.132 GiB by Python driver.
gradient() will perform analytic gradient computation.

*** tstart() called on wr86
*** at Thu Dec  6 15:26:34 2018

   => Loading Basis Set <=

    Name: 6-31G(D)
    Role: ORBITAL
    Keyword: BASIS
    atoms 1, 4, 8, 13               entry C          line   111 file /usr/local/hpc1/software_molmod/psi4/psi4conda/share/psi4/basis/6-31g_d_.gbs 
    atoms 2-3, 5-7, 9-10, 12, 14-15 entry H          line    44 file /usr/local/hpc1/software_molmod/psi4/psi4conda/share/psi4/basis/6-31g_d_.gbs 
    atoms 11                        entry O          line   145 file /usr/local/hpc1/software_molmod/psi4/psi4conda/share/psi4/basis/6-31g_d_.gbs 


         ---------------------------------------------------------
                                   SCF
            by Justin Turney, Rob Parrish, Andy Simmonett
                             and Daniel Smith
                              RHF Reference
                       16 Threads,  95367 MiB Core
         ---------------------------------------------------------

  ==> Geometry <==

    Molecular point group: c1
    Full point group: C1

    Geometry (in Angstrom), charge = 0, multiplicity = 1:

       Center              X                  Y                   Z               Mass       
    ------------   -----------------  -----------------  -----------------  -----------------
         C           -1.287853325454    -0.792221976241    -0.327487355582    12.000000000000
         H           -0.941398635854    -1.818516775641    -0.221971409182     1.007825032070
         H           -1.993264030954    -0.797251480541    -1.153877116282     1.007825032070
         C           -2.026434973454    -0.371015332741     0.945211388018    12.000000000000
         H           -2.370403382054     0.657135735259     0.874045565618     1.007825032070
         H           -1.398235862654    -0.448531117141     1.826909342618     1.007825032070
         H           -2.895981985654    -0.999267973041     1.111431523918     1.007825032070
         C            1.051126865646     0.073502552459     0.271232553418    12.000000000000
         H            1.388927783646    -0.953345227941     0.408353870218     1.007825032070
         H            0.745643896346     0.450162667259     1.244563422118     1.007825032070
         O            2.083429749346     0.867161047059    -0.256490761282    15.994914619560
         H            2.813294644546     0.881306666059     0.346023052518     1.007825032070
         C           -0.109057927654     0.108709035459    -0.710173914182    12.000000000000
         H            0.274772237846    -0.191067541541    -1.680814316482     1.007825032070
         H           -0.443287164454     1.137805142159    -0.812704065982     1.007825032070

  Running in c1 symmetry.

  Rotational constants: A =      0.42476  B =      0.07755  C =      0.07166 [cm^-1]
  Rotational constants: A =  12734.05644  B =   2324.93266  C =   2148.25303 [MHz]
  Nuclear repulsion =  188.084265998982062

  Charge       = 0
  Multiplicity = 1
  Electrons    = 42
  Nalpha       = 21
  Nbeta        = 21

  ==> Algorithm <==

  SCF Algorithm Type is DF.
  DIIS enabled.
  MOM disabled.
  Fractional occupation disabled.
  Guess Type is SAD.
  Energy threshold   = 1.00e-08
  Density threshold  = 1.00e-08
  Integral threshold = 0.00e+00

  ==> Primary Basis <==

  Basis Set: 6-31G(D)
    Blend: 6-31G(D)
    Number of shells: 50
    Number of basis function: 95
    Number of Cartesian functions: 95
    Spherical Harmonics?: false
    Max angular momentum: 2

   => Loading Basis Set <=

    Name: (6-31G(D) AUX)
    Role: JKFIT
    Keyword: DF_BASIS_SCF
    atoms 1, 4, 8, 13               entry C          line   121 file /usr/local/hpc1/software_molmod/psi4/psi4conda/share/psi4/basis/cc-pvdz-jkfit.gbs 
    atoms 2-3, 5-7, 9-10, 12, 14-15 entry H          line    51 file /usr/local/hpc1/software_molmod/psi4/psi4conda/share/psi4/basis/cc-pvdz-jkfit.gbs 
    atoms 11                        entry O          line   221 file /usr/local/hpc1/software_molmod/psi4/psi4conda/share/psi4/basis/cc-pvdz-jkfit.gbs 

  ==> Pre-Iterations <==

   -------------------------------------------------------
    Irrep   Nso     Nmo     Nalpha   Nbeta   Ndocc  Nsocc
   -------------------------------------------------------
     A         95      95       0       0       0       0
   -------------------------------------------------------
    Total      95      95      21      21      21       0
   -------------------------------------------------------

  ==> Integral Setup <==

  ==> DiskDFJK: Density-Fitted J/K Matrices <==

    J tasked:                  Yes
    K tasked:                  Yes
    wK tasked:                  No
    OpenMP threads:             16
    Integrals threads:          16
    Memory (MB):             71525
    Algorithm:                Core
    Integral Cache:           NONE
    Schwarz Cutoff:          1E-12
    Fitting Condition:       1E-12

   => Auxiliary Basis Set <=

  Basis Set: (6-31G(D) AUX)
    Blend: CC-PVDZ-JKFIT
    Number of shells: 210
    Number of basis function: 655
    Number of Cartesian functions: 655
    Spherical Harmonics?: false
    Max angular momentum: 3

  Minimum eigenvalue in the overlap matrix is 4.1759623224E-03.
  Using Symmetric Orthogonalization.

  SCF Guess: Superposition of Atomic Densities via on-the-fly atomic UHF.

  ==> Iterations <==

                           Total Energy        Delta E     RMS |[F,P]|

   @DF-RHF iter   0:  -233.99002470810984   -2.33990e+02   1.73119e-01 
   @DF-RHF iter   1:  -232.01495049837413    1.97507e+00   1.32020e-02 
   @DF-RHF iter   2:  -232.12589312199265   -1.10943e-01   5.18021e-03 DIIS
   @DF-RHF iter   3:  -232.14028962836420   -1.43965e-02   2.19758e-03 DIIS
   @DF-RHF iter   4:  -232.14320292338812   -2.91330e-03   3.14447e-04 DIIS
   @DF-RHF iter   5:  -232.14332628701138   -1.23364e-04   1.20610e-04 DIIS
   @DF-RHF iter   6:  -232.14333550564859   -9.21864e-06   3.06670e-05 DIIS
   @DF-RHF iter   7:  -232.14333655861537   -1.05297e-06   9.40713e-06 DIIS
   @DF-RHF iter   8:  -232.14333669063683   -1.32021e-07   3.08920e-06 DIIS
   @DF-RHF iter   9:  -232.14333670028111   -9.64428e-09   5.02037e-07 DIIS
   @DF-RHF iter  10:  -232.14333670059119   -3.10081e-10   1.83407e-07 DIIS
   @DF-RHF iter  11:  -232.14333670060753   -1.63425e-11   2.71988e-08 DIIS
   @DF-RHF iter  12:  -232.14333670060876   -1.22213e-12   1.05589e-08 DIIS
   @DF-RHF iter  13:  -232.14333670060873    2.84217e-14   2.97691e-09 DIIS

  ==> Post-Iterations <==

    Orbital Energies [Eh]
    ---------------------

    Doubly Occupied:                                                      

       1A    -20.551931     2A    -11.266946     3A    -11.218757  
       4A    -11.211283     5A    -11.211207     6A     -1.358692  
       7A     -1.069660     8A     -0.970956     9A     -0.869400  
      10A     -0.784682    11A     -0.694761    12A     -0.651447  
      13A     -0.617296    14A     -0.583626    15A     -0.556214  
      16A     -0.537705    17A     -0.507044    18A     -0.473586  
      19A     -0.473377    20A     -0.456343    21A     -0.433238  

    Virtual:                                                              

      22A      0.229288    23A      0.230293    24A      0.276955  
      25A      0.286664    26A      0.307022    27A      0.316843  
      28A      0.328969    29A      0.339429    30A      0.349281  
      31A      0.378420    32A      0.406716    33A      0.421715  
      34A      0.448413    35A      0.462666    36A      0.718405  
      37A      0.724434    38A      0.747119    39A      0.760300  
      40A      0.787758    41A      0.845170    42A      0.891477  
      43A      0.931230    44A      0.962311    45A      0.988652  
      46A      1.016015    47A      1.113774    48A      1.125609  
      49A      1.132861    50A      1.151935    51A      1.165069  
      52A      1.179780    53A      1.194688    54A      1.211045  
      55A      1.232793    56A      1.244976    57A      1.255087  
      58A      1.269361    59A      1.299194    60A      1.350000  
      61A      1.469638    62A      1.554325    63A      1.685526  
      64A      1.705834    65A      1.730415    66A      1.844863  
      67A      1.872894    68A      1.963632    69A      2.020134  
      70A      2.040378    71A      2.133210    72A      2.203115  
      73A      2.260732    74A      2.268271    75A      2.314385  
      76A      2.340854    77A      2.404194    78A      2.452219  
      79A      2.571867    80A      2.631914    81A      2.644749  
      82A      2.691463    83A      2.735246    84A      2.765878  
      85A      2.814763    86A      2.866659    87A      2.960934  
      88A      2.984469    89A      3.110000    90A      3.266101  
      91A      4.201357    92A      4.568767    93A      4.696452  
      94A      4.839686    95A      4.947015  

    Final Occupation by Irrep:
              A 
    DOCC [    21 ]

  Energy converged.

  @DF-RHF Final Energy:  -232.14333670060873

   => Energetics <=

    Nuclear Repulsion Energy =            188.0842659989820618
    One-Electron Energy =                -687.4588963254509508
    Two-Electron Energy =                 267.2312936258601894
    Total Energy =                       -232.1433367006086996



Properties will be evaluated at   0.000000,   0.000000,   0.000000 [a0]

Properties computed using the SCF density matrix

  Nuclear Dipole Moment: [e a0]
     X:    -4.5085      Y:    -1.9472      Z:     1.8193

  Electronic Dipole Moment: [e a0]
     X:     4.5135      Y:     1.6246      Z:    -1.2555

  Dipole Moment: [e a0]
     X:     0.0050      Y:    -0.3227      Z:     0.5638     Total:     0.6496

  Dipole Moment: [D]
     X:     0.0126      Y:    -0.8202      Z:     1.4329     Total:     1.6511


*** tstop() called on wr86 at Thu Dec  6 15:26:36 2018
Module time:
	user time   =      16.33 seconds =       0.27 minutes
	system time =       0.75 seconds =       0.01 minutes
	total time  =          2 seconds =       0.03 minutes
Total time:
	user time   =      16.33 seconds =       0.27 minutes
	system time =       0.75 seconds =       0.01 minutes
	total time  =          2 seconds =       0.03 minutes

*** tstart() called on wr86
*** at Thu Dec  6 15:26:36 2018


         ------------------------------------------------------------
                                   SCF GRAD                          
                          Rob Parrish, Justin Turney,                
                       Andy Simmonett, and Alex Sokolov              
         ------------------------------------------------------------

  ==> Geometry <==

    Molecular point group: c1
    Full point group: C1

    Geometry (in Angstrom), charge = 0, multiplicity = 1:

       Center              X                  Y                   Z               Mass       
    ------------   -----------------  -----------------  -----------------  -----------------
         C           -1.287853325454    -0.792221976241    -0.327487355582    12.000000000000
         H           -0.941398635854    -1.818516775641    -0.221971409182     1.007825032070
         H           -1.993264030954    -0.797251480541    -1.153877116282     1.007825032070
         C           -2.026434973454    -0.371015332741     0.945211388018    12.000000000000
         H           -2.370403382054     0.657135735259     0.874045565618     1.007825032070
         H           -1.398235862654    -0.448531117141     1.826909342618     1.007825032070
         H           -2.895981985654    -0.999267973041     1.111431523918     1.007825032070
         C            1.051126865646     0.073502552459     0.271232553418    12.000000000000
         H            1.388927783646    -0.953345227941     0.408353870218     1.007825032070
         H            0.745643896346     0.450162667259     1.244563422118     1.007825032070
         O            2.083429749346     0.867161047059    -0.256490761282    15.994914619560
         H            2.813294644546     0.881306666059     0.346023052518     1.007825032070
         C           -0.109057927654     0.108709035459    -0.710173914182    12.000000000000
         H            0.274772237846    -0.191067541541    -1.680814316482     1.007825032070
         H           -0.443287164454     1.137805142159    -0.812704065982     1.007825032070

  Nuclear repulsion =  188.084265998982062

  ==> Basis Set <==

  Basis Set: 6-31G(D)
    Blend: 6-31G(D)
    Number of shells: 50
    Number of basis function: 95
    Number of Cartesian functions: 95
    Spherical Harmonics?: false
    Max angular momentum: 2

  ==> DFJKGrad: Density-Fitted SCF Gradients <==

    Gradient:                    1
    J tasked:                  Yes
    K tasked:                  Yes
    wK tasked:                  No
    OpenMP threads:             16
    Integrals threads:          16
    Memory (MB):             71525
    Schwarz Cutoff:          0E+00
    Fitting Condition:       1E-12

   => Auxiliary Basis Set <=

  Basis Set: (6-31G(D) AUX)
    Blend: CC-PVDZ-JKFIT
    Number of shells: 210
    Number of basis function: 655
    Number of Cartesian functions: 655
    Spherical Harmonics?: false
    Max angular momentum: 3


  -Total Gradient:
     Atom            X                  Y                   Z
    ------   -----------------  -----------------  -----------------
       1       -0.000007708148     0.000012736734    -0.000000447547
       2        0.000001513156    -0.000008736200    -0.000002684180
       3       -0.000004263522    -0.000004839056    -0.000005971128
       4        0.000003350835    -0.000008663999    -0.000004583476
       5       -0.000002245691     0.000005490614     0.000002831895
       6        0.000000771003     0.000001046250     0.000006408566
       7       -0.000005444610    -0.000000142285     0.000004046282
       8        0.000050740916     0.000051574935    -0.000033816628
       9        0.000007548688    -0.000014503662     0.000006008885
      10       -0.000001396211     0.000003468183     0.000017036869
      11       -0.000048418680    -0.000026790437     0.000001410252
      12        0.000001035485    -0.000007256695     0.000014189907
      13       -0.000000481603    -0.000018053473     0.000011886427
      14        0.000004763639     0.000003370014    -0.000010445572
      15        0.000000234741     0.000011299075    -0.000005870553


*** tstop() called on wr86 at Thu Dec  6 15:26:37 2018
Module time:
	user time   =      15.76 seconds =       0.26 minutes
	system time =       0.58 seconds =       0.01 minutes
	total time  =          1 seconds =       0.02 minutes
Total time:
	user time   =      32.11 seconds =       0.54 minutes
	system time =       1.33 seconds =       0.02 minutes
	total time  =          3 seconds =       0.05 minutes

			-----------------------------------------
			 OPTKING 2.0: for geometry optimizations 
			  - R.A. King,  Bethel University        
			-----------------------------------------

	Internal coordinates to be generated automatically.
	Detected frag 1 with atoms:  1 2 3 4 5 6 7 8 9 10 11 12 13 14 15
	---Fragment 1 Bond Connectivity---
	 1 : 2 3 4 13
	 2 : 1
	 3 : 1
	 4 : 1 5 6 7
	 5 : 4
	 6 : 4
	 7 : 4
	 8 : 9 10 11 13
	 9 : 8
	 10 : 8
	 11 : 8 12
	 12 : 11
	 13 : 1 8 14 15
	 14 : 13
	 15 : 13

	---Fragment 1 Geometry and Gradient---
	 C          -2.4336900844       -1.4970825715       -0.6188614140
	 H          -1.7789856036       -3.4364986740       -0.4194651727
	 H          -3.7667231290       -1.5065869573       -2.1805117408
	 C          -3.8294071259       -0.7011173700        1.7861906610
	 H          -4.4794132165        1.2418065718        1.6517067467
	 H          -2.6422828496       -0.8476009735        3.4523583272
	 H          -5.4726128387       -1.8883428024        2.1003011957
	 C           1.9863419070        0.1388996942        0.5125552443
	 H           2.6246931294       -1.8015613909        0.7716769800
	 H           1.4090627568        0.8506841564        2.3518840228
	 O           3.9371116434        1.6386968920       -0.4846972944
	 H           5.3163564093        1.6654282379        0.6538888049
	 C          -0.2060896159        0.2054303052       -1.3420342045
	 H           0.5192442784       -0.3610653264       -3.1762787384
	 H          -0.8376913390        2.1501401113       -1.5357881118
	            -0.0000077081        0.0000127367       -0.0000004475
	             0.0000015132       -0.0000087362       -0.0000026842
	            -0.0000042635       -0.0000048391       -0.0000059711
	             0.0000033508       -0.0000086640       -0.0000045835
	            -0.0000022457        0.0000054906        0.0000028319
	             0.0000007710        0.0000010463        0.0000064086
	            -0.0000054446       -0.0000001423        0.0000040463
	             0.0000507409        0.0000515749       -0.0000338166
	             0.0000075487       -0.0000145037        0.0000060089
	            -0.0000013962        0.0000034682        0.0000170369
	            -0.0000484187       -0.0000267904        0.0000014103
	             0.0000010355       -0.0000072567        0.0000141899
	            -0.0000004816       -0.0000180535        0.0000118864
	             0.0000047636        0.0000033700       -0.0000104456
	             0.0000002347        0.0000112991       -0.0000058706

	Previous optimization step data not found.  Starting new optimization.

	---Fragment 1 Intrafragment Coordinates---
	 - Coordinate -           - BOHR/RAD -       - ANG/DEG -
	 R(1,2)           =         2.056631	       1.088322
	 R(1,3)           =         2.053246	       1.086531
	 R(1,4)           =         2.892380	       1.530582
	 R(1,13)          =         2.895468	       1.532215
	 R(4,5)           =         2.053180	       1.086496
	 R(4,6)           =         2.051057	       1.085373
	 R(4,7)           =         2.051413	       1.085561
	 R(8,9)           =         2.059132	       1.089646
	 R(8,10)          =         2.054998	       1.087458
	 R(8,11)          =         2.655072	       1.405004
	 R(8,13)          =         2.872400	       1.520009
	 R(11,12)         =         1.788689	       0.946534
	 R(13,14)         =         2.052189	       1.085972
	 R(13,15)         =         2.053864	       1.086858
	 B(1,4,5)         =         1.937692	     111.021582
	 B(1,4,6)         =         1.956843	     112.118845
	 B(1,4,7)         =         1.933266	     110.767954
	 B(1,13,8)        =         1.995817	     114.351881
	 B(1,13,14)       =         1.910112	     109.441375
	 B(1,13,15)       =         1.921669	     110.103550
	 B(2,1,3)         =         1.850479	     106.024617
	 B(2,1,4)         =         1.909756	     109.420951
	 B(2,1,13)        =         1.911112	     109.498667
	 B(3,1,4)         =         1.896965	     108.688109
	 B(3,1,13)        =         1.888347	     108.194306
	 B(4,1,13)        =         2.001062	     114.652394
	 B(5,4,6)         =         1.879714	     107.699663
	 B(5,4,7)         =         1.879788	     107.703928
	 B(6,4,7)         =         1.873285	     107.331313
	 B(8,11,12)       =         1.913357	     109.627282
	 B(8,13,14)       =         1.876454	     107.512876
	 B(8,13,15)       =         1.893953	     108.515516
	 B(9,8,10)        =         1.876389	     107.509174
	 B(9,8,11)        =         1.930307	     110.598462
	 B(9,8,13)        =         1.917394	     109.858581
	 B(10,8,11)       =         1.925087	     110.299353
	 B(10,8,13)       =         1.934202	     110.821615
	 B(11,8,13)       =         1.880954	     107.770719
	 B(14,13,15)      =         1.860582	     106.603502
	 D(1,13,8,9)      =         0.966141	      55.355787
	 D(1,13,8,10)     =        -1.104838	     -63.302547
	 D(1,13,8,11)     =         3.070449	     175.923791
	 D(2,1,4,5)       =         3.125684	     179.088493
	 D(2,1,4,6)       =         1.022290	      58.572893
	 D(2,1,4,7)       =        -1.069844	     -61.297529
	 D(2,1,13,8)      =        -0.998545	     -57.212424
	 D(2,1,13,14)     =         1.107477	      63.453763
	 D(2,1,13,15)     =        -3.136043	    -179.682036
	 D(3,1,4,5)       =        -1.144148	     -65.554838
	 D(3,1,4,6)       =         3.035644	     173.929563
	 D(3,1,4,7)       =         0.943510	      54.059141
	 D(3,1,13,8)      =        -3.007903	    -172.340162
	 D(3,1,13,14)     =        -0.901881	     -51.673976
	 D(3,1,13,15)     =         1.137784	      65.190226
	 D(4,1,13,8)      =         1.155355	      66.196991
	 D(4,1,13,14)     =        -3.021808	    -173.136822
	 D(4,1,13,15)     =        -0.982143	     -56.272621
	 D(5,4,1,13)      =         0.971057	      55.637482
	 D(6,4,1,13)      =        -1.132337	     -64.878118
	 D(7,4,1,13)      =         3.058715	     175.251460
	 D(9,8,11,12)     =        -1.070097	     -61.312045
	 D(9,8,13,14)     =        -1.158455	     -66.374590
	 D(9,8,13,15)     =         3.118651	     178.685540
	 D(10,8,11,12)    =         1.003309	      57.485372
	 D(10,8,13,14)    =         3.053752	     174.967076
	 D(10,8,13,15)    =         1.047672	      60.027206
	 D(11,8,13,14)    =         0.945854	      54.193414
	 D(11,8,13,15)    =        -1.060226	     -60.746456
	 D(12,11,8,13)    =         3.116911	     178.585870

	Current energy   :      -232.1433367006

	Generating empirical Hessian (Schlegel '84) for each fragment.
	Taking RFO optimization step.
	Going to follow RFO solution 1.
	Using RFO vector 1.
	Norm of target step-size    0.00491
	Projected energy change by RFO approximation:         0.0000001065

	Back-transformation to cartesian coordinates...
	Could not converge backtransformation.
	Using first guess instead.

	--- Internal Coordinate Step in ANG or DEG, aJ/ANG or AJ/DEG ---
	 ---------------------------------------------------------------------------
	   Coordinate                Previous        Force       Change         New 
	   ----------                --------       ------       ------       ------
	    1 R(1,2)          =      1.088322    -0.000070    -0.000012     1.088310
	    2 R(1,3)          =      1.086531    -0.000060    -0.000011     1.086520
	    3 R(1,4)          =      1.530582    -0.000069    -0.000015     1.530567
	    4 R(1,13)         =      1.532215    -0.000103    -0.000023     1.532193
	    5 R(4,5)          =      1.086496    -0.000047    -0.000008     1.086488
	    6 R(4,6)          =      1.085373    -0.000046    -0.000008     1.085365
	    7 R(4,7)          =      1.085561    -0.000042    -0.000007     1.085554
	    8 R(8,9)          =      1.089646    -0.000138    -0.000025     1.089621
	    9 R(8,10)         =      1.087458    -0.000139    -0.000025     1.087433
	   10 R(8,11)         =      1.405004     0.000494     0.000071     1.405074
	   11 R(8,13)         =      1.520009    -0.000084    -0.000018     1.519991
	   12 R(11,12)        =      0.946534    -0.000080    -0.000009     0.946525
	   13 R(13,14)        =      1.085972    -0.000083    -0.000015     1.085957
	   14 R(13,15)        =      1.086858    -0.000092    -0.000016     1.086842
	   15 B(1,4,5)        =    111.021582    -0.000000    -0.000661   111.020922
	   16 B(1,4,6)        =    112.118845    -0.000000    -0.001045   112.117800
	   17 B(1,4,7)        =    110.767954    -0.000000    -0.002078   110.765876
	   18 B(1,13,8)       =    114.351881    -0.000001    -0.004205   114.347676
	   19 B(1,13,14)      =    109.441375     0.000000    -0.001256   109.440119
	   20 B(1,13,15)      =    110.103550     0.000000    -0.000434   110.103115
	   21 B(2,1,3)        =    106.024617     0.000000     0.002805   106.027421
	   22 B(2,1,4)        =    109.420951     0.000000     0.001022   109.421973
	   23 B(2,1,13)       =    109.498667     0.000000     0.001212   109.499879
	   24 B(3,1,4)        =    108.688109    -0.000000    -0.001902   108.686207
	   25 B(3,1,13)       =    108.194306     0.000000    -0.001311   108.192995
	   26 B(4,1,13)       =    114.652394    -0.000000    -0.001531   114.650863
	   27 B(5,4,6)        =    107.699663     0.000000     0.001710   107.701373
	   28 B(5,4,7)        =    107.703928     0.000000     0.001284   107.705212
	   29 B(6,4,7)        =    107.331313     0.000000     0.001027   107.332340
	   30 B(8,11,12)      =    109.627282     0.000002     0.008090   109.635372
	   31 B(8,13,14)      =    107.512876     0.000000     0.000022   107.512897
	   32 B(8,13,15)      =    108.515516     0.000000     0.002328   108.517845
	   33 B(9,8,10)       =    107.509174     0.000000     0.002089   107.511262
	   34 B(9,8,11)       =    110.598462     0.000000     0.001515   110.599977
	   35 B(9,8,13)       =    109.858581    -0.000000    -0.001540   109.857042
	   36 B(10,8,11)      =    110.299353     0.000000     0.000034   110.299387
	   37 B(10,8,13)      =    110.821615    -0.000000    -0.001903   110.819711
	   38 B(11,8,13)      =    107.770719     0.000000    -0.000217   107.770502
	   39 B(14,13,15)     =    106.603502     0.000000     0.004165   106.607668
	   40 D(1,13,8,9)     =     55.355787    -0.000000     0.009662    55.365449
	   41 D(1,13,8,10)    =    -63.302547    -0.000000     0.009230   -63.293317
	   42 D(1,13,8,11)    =    175.923791     0.000000     0.010466   175.934257
	   43 D(2,1,4,5)      =    179.088493    -0.000000     0.018302   179.106795
	   44 D(2,1,4,6)      =     58.572893    -0.000000     0.017294    58.590187
	   45 D(2,1,4,7)      =    -61.297529    -0.000000     0.018116   -61.279413
	   46 D(2,1,13,8)     =    -57.212424     0.000000     0.092849   -57.119575
	   47 D(2,1,13,14)    =     63.453763     0.000000     0.089100    63.542862
	   48 D(2,1,13,15)    =   -179.682036     0.000000     0.093160  -179.588876
	   49 D(3,1,4,5)      =    -65.554838     0.000000     0.021148   -65.533690
	   50 D(3,1,4,6)      =    173.929563     0.000000     0.020139   173.949702
	   51 D(3,1,4,7)      =     54.059141     0.000000     0.020961    54.080102
	   52 D(3,1,13,8)     =   -172.340162    -0.000000     0.089598  -172.250564
	   53 D(3,1,13,14)    =    -51.673976    -0.000000     0.085848   -51.588127
	   54 D(3,1,13,15)    =     65.190226     0.000000     0.089909    65.280135
	   55 D(4,1,13,8)     =     66.196991     0.000000     0.094033    66.291024
	   56 D(4,1,13,14)    =   -173.136822     0.000000     0.090284  -173.046539
	   57 D(4,1,13,15)    =    -56.272621     0.000000     0.094344   -56.178277
	   58 D(5,4,1,13)     =     55.637482    -0.000000     0.017016    55.654497
	   59 D(6,4,1,13)     =    -64.878118    -0.000000     0.016007   -64.862111
	   60 D(7,4,1,13)     =    175.251460    -0.000000     0.016829   175.268289
	   61 D(9,8,11,12)    =    -61.312045    -0.000000    -0.000350   -61.312394
	   62 D(9,8,13,14)    =    -66.374590     0.000000     0.013985   -66.360605
	   63 D(9,8,13,15)    =    178.685540    -0.000000     0.007933   178.693473
	   64 D(10,8,11,12)   =     57.485372     0.000000     0.003213    57.488585
	   65 D(10,8,13,14)   =    174.967076     0.000000     0.013554   174.980630
	   66 D(10,8,13,15)   =     60.027206    -0.000000     0.007501    60.034707
	   67 D(11,8,13,14)   =     54.193414     0.000000     0.014790    54.208204
	   68 D(11,8,13,15)   =    -60.746456    -0.000000     0.008738   -60.737718
	   69 D(12,11,8,13)   =    178.585870    -0.000000     0.000772   178.586642
	 ---------------------------------------------------------------------------
	Successfully symmetrized geometry.

  ==> Convergence Check <==

  Measures of convergence in internal coordinates in au.
  Criteria marked as inactive (o), active & met (*), and active & unmet ( ).
  --------------------------------------------------------------------------------------------- ~
   Step     Total Energy     Delta E     MAX Force     RMS Force      MAX Disp      RMS Disp    ~
  --------------------------------------------------------------------------------------------- ~
    Convergence Criteria             o    1.50e-05 *    1.00e-05 *    6.00e-05 *    4.00e-05 *  ~
  --------------------------------------------------------------------------------------------- ~
      1    -232.14333670   -2.32e+02 o    5.99e-05      9.33e-06 *    1.65e-03      5.91e-04    ~
  ---------------------------------------------------------------------------------------------

	Writing optimization data to binary file.
	Structure for next step:
	Cartesian Geometry (in Angstrom)
	    C    -1.2876401292  -0.7923212929  -0.3271442316
	    H    -0.9407621921  -1.8183850451  -0.2209026207
	    H    -1.9926887284  -0.7980875229  -1.1538241190
	    C    -2.0269727374  -0.3707227141   0.9449709366
	    H    -2.3716484970   0.6571214474   0.8729212573
	    H    -1.3990281138  -0.4471654441   1.8269342722
	    H    -2.8961140384  -0.9994940671   1.1113033944
	    C     1.0514918872   0.0730850996   0.2710376893
	    H     1.3894795591  -0.9538143165   0.4071099921
	    H     0.7463680908   0.4488746812   1.2447898022
	    O     2.0834800386   0.8674032083  -0.2564976618
	    H     2.8136818486   0.8812168721   0.3456019957
	    C    -0.1091279705   0.1089535119  -0.7098031123
	    H     0.2742501006  -0.1901762541  -1.6808051237
	    H    -0.4434912290   1.1380772573  -0.8114406912
			--------------------------
			 OPTKING Finished Execution 
			--------------------------

    Structure for next step:
    Molecular point group: c1
    Full point group: C1

    Geometry (in Angstrom), charge = 0, multiplicity = 1:

    C           -1.287645913248    -0.792373305229    -0.327184180095
    H           -0.940767976134    -1.818437057353    -0.220942569208
    H           -1.992694512499    -0.798139535192    -1.153864067514
    C           -2.026978521450    -0.370774726368     0.944930988063
    H           -2.371654281097     0.657069435069     0.872881308710
    H           -1.399033897855    -0.447217456417     1.826894323614
    H           -2.896119822416    -0.999546079340     1.111263445900
    C            1.051486103187     0.073033087329     0.270997740776
    H            1.389473775095    -0.953866328806     0.407070043516
    H            0.746362306756     0.448822668935     1.244749853678
    O            2.083474254570     0.867351196027    -0.256537610356
    H            2.813676064597     0.881164859765     0.345562047163
    C           -0.109133754562     0.108901499632    -0.709843060878
    H            0.274244316591    -0.190228266433    -1.680845072283
    H           -0.443497013093     1.138025244972    -0.811480639758

gradient() will perform analytic gradient computation.

*** tstart() called on wr86
*** at Thu Dec  6 15:26:37 2018

   => Loading Basis Set <=

    Name: 6-31G(D)
    Role: ORBITAL
    Keyword: BASIS
    atoms 1, 4, 8, 13               entry C          line   111 file /usr/local/hpc1/software_molmod/psi4/psi4conda/share/psi4/basis/6-31g_d_.gbs 
    atoms 2-3, 5-7, 9-10, 12, 14-15 entry H          line    44 file /usr/local/hpc1/software_molmod/psi4/psi4conda/share/psi4/basis/6-31g_d_.gbs 
    atoms 11                        entry O          line   145 file /usr/local/hpc1/software_molmod/psi4/psi4conda/share/psi4/basis/6-31g_d_.gbs 


         ---------------------------------------------------------
                                   SCF
            by Justin Turney, Rob Parrish, Andy Simmonett
                             and Daniel Smith
                              RHF Reference
                       16 Threads,  95367 MiB Core
         ---------------------------------------------------------

  ==> Geometry <==

    Molecular point group: c1
    Full point group: C1

    Geometry (in Angstrom), charge = 0, multiplicity = 1:

       Center              X                  Y                   Z               Mass       
    ------------   -----------------  -----------------  -----------------  -----------------
         C           -1.287645913248    -0.792373305229    -0.327184180095    12.000000000000
         H           -0.940767976134    -1.818437057353    -0.220942569208     1.007825032070
         H           -1.992694512499    -0.798139535192    -1.153864067514     1.007825032070
         C           -2.026978521450    -0.370774726368     0.944930988063    12.000000000000
         H           -2.371654281097     0.657069435069     0.872881308710     1.007825032070
         H           -1.399033897855    -0.447217456417     1.826894323614     1.007825032070
         H           -2.896119822416    -0.999546079340     1.111263445900     1.007825032070
         C            1.051486103187     0.073033087329     0.270997740776    12.000000000000
         H            1.389473775095    -0.953866328806     0.407070043516     1.007825032070
         H            0.746362306756     0.448822668935     1.244749853678     1.007825032070
         O            2.083474254570     0.867351196027    -0.256537610356    15.994914619560
         H            2.813676064597     0.881164859765     0.345562047163     1.007825032070
         C           -0.109133754562     0.108901499632    -0.709843060878    12.000000000000
         H            0.274244316591    -0.190228266433    -1.680845072283     1.007825032070
         H           -0.443497013093     1.138025244972    -0.811480639758     1.007825032070

  Running in c1 symmetry.

  Rotational constants: A =      0.42488  B =      0.07753  C =      0.07165 [cm^-1]
  Rotational constants: A =  12737.51928  B =   2324.39708  C =   2148.11876 [MHz]
  Nuclear repulsion =  188.081458710179959

  Charge       = 0
  Multiplicity = 1
  Electrons    = 42
  Nalpha       = 21
  Nbeta        = 21

  ==> Algorithm <==

  SCF Algorithm Type is DF.
  DIIS enabled.
  MOM disabled.
  Fractional occupation disabled.
  Guess Type is READ.
  Energy threshold   = 1.00e-08
  Density threshold  = 1.00e-08
  Integral threshold = 0.00e+00

  ==> Primary Basis <==

  Basis Set: 6-31G(D)
    Blend: 6-31G(D)
    Number of shells: 50
    Number of basis function: 95
    Number of Cartesian functions: 95
    Spherical Harmonics?: false
    Max angular momentum: 2

   => Loading Basis Set <=

    Name: (6-31G(D) AUX)
    Role: JKFIT
    Keyword: DF_BASIS_SCF
    atoms 1, 4, 8, 13               entry C          line   121 file /usr/local/hpc1/software_molmod/psi4/psi4conda/share/psi4/basis/cc-pvdz-jkfit.gbs 
    atoms 2-3, 5-7, 9-10, 12, 14-15 entry H          line    51 file /usr/local/hpc1/software_molmod/psi4/psi4conda/share/psi4/basis/cc-pvdz-jkfit.gbs 
    atoms 11                        entry O          line   221 file /usr/local/hpc1/software_molmod/psi4/psi4conda/share/psi4/basis/cc-pvdz-jkfit.gbs 

  Reading orbitals from file 180, no projection.

  ==> Pre-Iterations <==

   -------------------------------------------------------
    Irrep   Nso     Nmo     Nalpha   Nbeta   Ndocc  Nsocc
   -------------------------------------------------------
     A         95      95       0       0       0       0
   -------------------------------------------------------
    Total      95      95      21      21      21       0
   -------------------------------------------------------

  ==> Integral Setup <==

  ==> DiskDFJK: Density-Fitted J/K Matrices <==

    J tasked:                  Yes
    K tasked:                  Yes
    wK tasked:                  No
    OpenMP threads:             16
    Integrals threads:          16
    Memory (MB):             71525
    Algorithm:                Core
    Integral Cache:           NONE
    Schwarz Cutoff:          1E-12
    Fitting Condition:       1E-12

   => Auxiliary Basis Set <=

  Basis Set: (6-31G(D) AUX)
    Blend: CC-PVDZ-JKFIT
    Number of shells: 210
    Number of basis function: 655
    Number of Cartesian functions: 655
    Spherical Harmonics?: false
    Max angular momentum: 3

  Minimum eigenvalue in the overlap matrix is 4.1761291250E-03.
  Using Symmetric Orthogonalization.

  SCF Guess: Orbitals guess was supplied from a previous computation.

  ==> Iterations <==

                           Total Energy        Delta E     RMS |[F,P]|

   @DF-RHF iter   0:  -232.14335623993395   -2.32143e+02   6.23429e-05 
   @DF-RHF iter   1:  -232.14333658633669    1.96536e-05   1.03940e-05 
   @DF-RHF iter   2:  -232.14333668529102   -9.89543e-08   4.18537e-06 DIIS
   @DF-RHF iter   3:  -232.14333669971796   -1.44269e-08   4.67246e-07 DIIS
   @DF-RHF iter   4:  -232.14333669994198   -2.24020e-10   2.03099e-07 DIIS
   @DF-RHF iter   5:  -232.14333669999263   -5.06475e-11   4.67414e-08 DIIS
   @DF-RHF iter   6:  -232.14333669999701   -4.37694e-12   1.54392e-08 DIIS
   @DF-RHF iter   7:  -232.14333669999709   -8.52651e-14   3.67554e-09 DIIS

  ==> Post-Iterations <==

    Orbital Energies [Eh]
    ---------------------

    Doubly Occupied:                                                      

       1A    -20.551924     2A    -11.266945     3A    -11.218750  
       4A    -11.211276     5A    -11.211200     6A     -1.358658  
       7A     -1.069672     8A     -0.970971     9A     -0.869387  
      10A     -0.784701    11A     -0.694745    12A     -0.651441  
      13A     -0.617318    14A     -0.583612    15A     -0.556201  
      16A     -0.537723    17A     -0.507014    18A     -0.473593  
      19A     -0.473382    20A     -0.456352    21A     -0.433245  

    Virtual:                                                              

      22A      0.229294    23A      0.230296    24A      0.276935  
      25A      0.286641    26A      0.307005    27A      0.316818  
      28A      0.328982    29A      0.339450    30A      0.349311  
      31A      0.378475    32A      0.406811    33A      0.421672  
      34A      0.448431    35A      0.462622    36A      0.718378  
      37A      0.724385    38A      0.747123    39A      0.760278  
      40A      0.787780    41A      0.845161    42A      0.891430  
      43A      0.931240    44A      0.962328    45A      0.988669  
      46A      1.016014    47A      1.113743    48A      1.125646  
      49A      1.132885    50A      1.151922    51A      1.165086  
      52A      1.179816    53A      1.194696    54A      1.211123  
      55A      1.232805    56A      1.245018    57A      1.255088  
      58A      1.269385    59A      1.299205    60A      1.349989  
      61A      1.469416    62A      1.554360    63A      1.685565  
      64A      1.705920    65A      1.730423    66A      1.844985  
      67A      1.872964    68A      1.963700    69A      2.020199  
      70A      2.040416    71A      2.133323    72A      2.203082  
      73A      2.260732    74A      2.268165    75A      2.314526  
      76A      2.340840    77A      2.404125    78A      2.452192  
      79A      2.571894    80A      2.631821    81A      2.644557  
      82A      2.691596    83A      2.735318    84A      2.765924  
      85A      2.814746    86A      2.866727    87A      2.960843  
      88A      2.984525    89A      3.110000    90A      3.266050  
      91A      4.201326    92A      4.568793    93A      4.696435  
      94A      4.839838    95A      4.947010  

    Final Occupation by Irrep:
              A 
    DOCC [    21 ]

  Energy converged.

  @DF-RHF Final Energy:  -232.14333669999709

   => Energetics <=

    Nuclear Repulsion Energy =            188.0814587101799589
    One-Electron Energy =                -687.4533717613537647
    Two-Electron Energy =                 267.2285763511766845
    Total Energy =                       -232.1433366999971213



Properties will be evaluated at   0.000000,   0.000000,   0.000000 [a0]

Properties computed using the SCF density matrix

  Nuclear Dipole Moment: [e a0]
     X:    -4.5086      Y:    -1.9480      Z:     1.8187

  Electronic Dipole Moment: [e a0]
     X:     4.5139      Y:     1.6248      Z:    -1.2552

  Dipole Moment: [e a0]
     X:     0.0053      Y:    -0.3232      Z:     0.5635     Total:     0.6496

  Dipole Moment: [D]
     X:     0.0134      Y:    -0.8215      Z:     1.4322     Total:     1.6511


*** tstop() called on wr86 at Thu Dec  6 15:26:38 2018
Module time:
	user time   =      13.65 seconds =       0.23 minutes
	system time =       0.28 seconds =       0.00 minutes
	total time  =          1 seconds =       0.02 minutes
Total time:
	user time   =      49.38 seconds =       0.82 minutes
	system time =       1.76 seconds =       0.03 minutes
	total time  =          4 seconds =       0.07 minutes

*** tstart() called on wr86
*** at Thu Dec  6 15:26:38 2018


         ------------------------------------------------------------
                                   SCF GRAD                          
                          Rob Parrish, Justin Turney,                
                       Andy Simmonett, and Alex Sokolov              
         ------------------------------------------------------------

  ==> Geometry <==

    Molecular point group: c1
    Full point group: C1

    Geometry (in Angstrom), charge = 0, multiplicity = 1:

       Center              X                  Y                   Z               Mass       
    ------------   -----------------  -----------------  -----------------  -----------------
         C           -1.287645913248    -0.792373305229    -0.327184180095    12.000000000000
         H           -0.940767976134    -1.818437057353    -0.220942569208     1.007825032070
         H           -1.992694512499    -0.798139535192    -1.153864067514     1.007825032070
         C           -2.026978521450    -0.370774726368     0.944930988063    12.000000000000
         H           -2.371654281097     0.657069435069     0.872881308710     1.007825032070
         H           -1.399033897855    -0.447217456417     1.826894323614     1.007825032070
         H           -2.896119822416    -0.999546079340     1.111263445900     1.007825032070
         C            1.051486103187     0.073033087329     0.270997740776    12.000000000000
         H            1.389473775095    -0.953866328806     0.407070043516     1.007825032070
         H            0.746362306756     0.448822668935     1.244749853678     1.007825032070
         O            2.083474254570     0.867351196027    -0.256537610356    15.994914619560
         H            2.813676064597     0.881164859765     0.345562047163     1.007825032070
         C           -0.109133754562     0.108901499632    -0.709843060878    12.000000000000
         H            0.274244316591    -0.190228266433    -1.680845072283     1.007825032070
         H           -0.443497013093     1.138025244972    -0.811480639758     1.007825032070

  Nuclear repulsion =  188.081458710179959

  ==> Basis Set <==

  Basis Set: 6-31G(D)
    Blend: 6-31G(D)
    Number of shells: 50
    Number of basis function: 95
    Number of Cartesian functions: 95
    Spherical Harmonics?: false
    Max angular momentum: 2

  ==> DFJKGrad: Density-Fitted SCF Gradients <==

    Gradient:                    1
    J tasked:                  Yes
    K tasked:                  Yes
    wK tasked:                  No
    OpenMP threads:             16
    Integrals threads:          16
    Memory (MB):             71525
    Schwarz Cutoff:          0E+00
    Fitting Condition:       1E-12

   => Auxiliary Basis Set <=

  Basis Set: (6-31G(D) AUX)
    Blend: CC-PVDZ-JKFIT
    Number of shells: 210
    Number of basis function: 655
    Number of Cartesian functions: 655
    Spherical Harmonics?: false
    Max angular momentum: 3


  -Total Gradient:
     Atom            X                  Y                   Z
    ------   -----------------  -----------------  -----------------
       1        0.000005515601    -0.000000881351     0.000001973137
       2        0.000002418554     0.000001289853     0.000003591829
       3        0.000003686111     0.000000835113    -0.000002964033
       4       -0.000001717469     0.000001144679    -0.000005434107
       5       -0.000001738011     0.000002679948     0.000001490039
       6       -0.000001117706    -0.000002056279    -0.000001383921
       7        0.000000836401     0.000000299023    -0.000001509134
       8        0.000010656325     0.000006501915    -0.000013500299
       9       -0.000003373785    -0.000006296370     0.000004557301
      10       -0.000002559788    -0.000000870191    -0.000001864271
      11       -0.000002306322    -0.000003962007     0.000003875866
      12        0.000003547481     0.000003462056    -0.000002453999
      13       -0.000009865014    -0.000004603886     0.000010926906
      14       -0.000003156298     0.000000088876    -0.000001420583
      15       -0.000000826082     0.000002368619     0.000004115268


*** tstop() called on wr86 at Thu Dec  6 15:26:39 2018
Module time:
	user time   =      15.70 seconds =       0.26 minutes
	system time =       0.64 seconds =       0.01 minutes
	total time  =          1 seconds =       0.02 minutes
Total time:
	user time   =      65.10 seconds =       1.09 minutes
	system time =       2.40 seconds =       0.04 minutes
	total time  =          5 seconds =       0.08 minutes

			-----------------------------------------
			 OPTKING 2.0: for geometry optimizations 
			  - R.A. King,  Bethel University        
			-----------------------------------------

	Previous internal coordinate definitions found.
	---Fragment 1 Geometry and Gradient---
	 C          -2.4332981322       -1.4973685419       -0.6182884954
	 H          -1.7777938295       -3.4363480283       -0.4175209469
	 H          -3.7656468951       -1.5082651373       -2.1804870822
	 C          -3.8304342828       -0.7006626898        1.7856607819
	 H          -4.4817770732        1.2416812826        1.6495066200
	 H          -2.6437909176       -0.8451185145        3.4523299454
	 H          -5.4728733124       -1.8888683472        2.0999835742
	 C           1.9870207676        0.1380125337        0.5121115127
	 H           2.6257249038       -1.8025461288        0.7692508991
	 H           1.4104203557        0.8481519265        2.3522363274
	 O           3.9371957461        1.6390562215       -0.4847858264
	 H           5.3170771887        1.6651602629        0.6530176311
	 C          -0.2062329080        0.2057940098       -1.3414089824
	 H           0.5182466519       -0.3594793263       -3.1763368584
	 H          -0.8380878955        2.1505560453       -1.5334761713
	             0.0000055156       -0.0000008814        0.0000019731
	             0.0000024186        0.0000012899        0.0000035918
	             0.0000036861        0.0000008351       -0.0000029640
	            -0.0000017175        0.0000011447       -0.0000054341
	            -0.0000017380        0.0000026799        0.0000014900
	            -0.0000011177       -0.0000020563       -0.0000013839
	             0.0000008364        0.0000002990       -0.0000015091
	             0.0000106563        0.0000065019       -0.0000135003
	            -0.0000033738       -0.0000062964        0.0000045573
	            -0.0000025598       -0.0000008702       -0.0000018643
	            -0.0000023063       -0.0000039620        0.0000038759
	             0.0000035475        0.0000034621       -0.0000024540
	            -0.0000098650       -0.0000046039        0.0000109269
	            -0.0000031563        0.0000000889       -0.0000014206
	            -0.0000008261        0.0000023686        0.0000041153

	---Fragment 1 Intrafragment Coordinates---
	 - Coordinate -           - BOHR/RAD -       - ANG/DEG -
	 R(1,2)           =         2.056608	       1.088310
	 R(1,3)           =         2.053226	       1.086520
	 R(1,4)           =         2.892352	       1.530567
	 R(1,13)          =         2.895425	       1.532193
	 R(4,5)           =         2.053165	       1.086488
	 R(4,6)           =         2.051043	       1.085365
	 R(4,7)           =         2.051399	       1.085554
	 R(8,9)           =         2.059085	       1.089621
	 R(8,10)          =         2.054951	       1.087433
	 R(8,11)          =         2.655206	       1.405074
	 R(8,13)          =         2.872367	       1.519991
	 R(11,12)         =         1.788673	       0.946525
	 R(13,14)         =         2.052161	       1.085957
	 R(13,15)         =         2.053833	       1.086842
	 B(1,4,5)         =         1.937681	     111.020922
	 B(1,4,6)         =         1.956825	     112.117800
	 B(1,4,7)         =         1.933229	     110.765876
	 B(1,13,8)        =         1.995743	     114.347676
	 B(1,13,14)       =         1.910090	     109.440119
	 B(1,13,15)       =         1.921662	     110.103115
	 B(2,1,3)         =         1.850528	     106.027421
	 B(2,1,4)         =         1.909774	     109.421973
	 B(2,1,13)        =         1.911133	     109.499879
	 B(3,1,4)         =         1.896932	     108.686207
	 B(3,1,13)        =         1.888324	     108.192995
	 B(4,1,13)        =         2.001035	     114.650863
	 B(5,4,6)         =         1.879744	     107.701373
	 B(5,4,7)         =         1.879811	     107.705212
	 B(6,4,7)         =         1.873303	     107.332340
	 B(8,11,12)       =         1.913498	     109.635372
	 B(8,13,14)       =         1.876454	     107.512897
	 B(8,13,15)       =         1.893994	     108.517845
	 B(9,8,10)        =         1.876426	     107.511262
	 B(9,8,11)        =         1.930334	     110.599977
	 B(9,8,13)        =         1.917367	     109.857042
	 B(10,8,11)       =         1.925087	     110.299387
	 B(10,8,13)       =         1.934169	     110.819711
	 B(11,8,13)       =         1.880950	     107.770502
	 B(14,13,15)      =         1.860655	     106.607668
	 D(1,13,8,9)      =         0.966309	      55.365449
	 D(1,13,8,10)     =        -1.104677	     -63.293317
	 D(1,13,8,11)     =         3.070632	     175.934257
	 D(2,1,4,5)       =         3.126003	     179.106795
	 D(2,1,4,6)       =         1.022592	      58.590187
	 D(2,1,4,7)       =        -1.069528	     -61.279413
	 D(2,1,13,8)      =        -0.996925	     -57.119575
	 D(2,1,13,14)     =         1.109032	      63.542862
	 D(2,1,13,15)     =        -3.134417	    -179.588876
	 D(3,1,4,5)       =        -1.143779	     -65.533690
	 D(3,1,4,6)       =         3.035995	     173.949702
	 D(3,1,4,7)       =         0.943876	      54.080102
	 D(3,1,13,8)      =        -3.006339	    -172.250564
	 D(3,1,13,14)     =        -0.900383	     -51.588127
	 D(3,1,13,15)     =         1.139353	      65.280135
	 D(4,1,13,8)      =         1.156997	      66.291024
	 D(4,1,13,14)     =        -3.020232	    -173.046539
	 D(4,1,13,15)     =        -0.980496	     -56.178277
	 D(5,4,1,13)      =         0.971354	      55.654497
	 D(6,4,1,13)      =        -1.132057	     -64.862111
	 D(7,4,1,13)      =         3.059009	     175.268289
	 D(9,8,11,12)     =        -1.070103	     -61.312394
	 D(9,8,13,14)     =        -1.158211	     -66.360605
	 D(9,8,13,15)     =         3.118789	     178.693473
	 D(10,8,11,12)    =         1.003365	      57.488585
	 D(10,8,13,14)    =         3.053988	     174.980630
	 D(10,8,13,15)    =         1.047803	      60.034707
	 D(11,8,13,14)    =         0.946112	      54.208204
	 D(11,8,13,15)    =        -1.060073	     -60.737718
	 D(12,11,8,13)    =         3.116925	     178.586642

	Current energy   :      -232.1433367000

	Energy change for the previous step:
		Projected    :         0.0000001065
		Actual       :         0.0000000006

	Performing BFGS update.
	Previous computed or guess Hessian on step 1.
	Steps to be used in Hessian update: 1
	Taking RFO optimization step.
	Going to follow RFO solution 1.
	Using RFO vector 1.
	Norm of target step-size    0.00402
	Projected energy change by RFO approximation:        -0.0000000821

	Back-transformation to cartesian coordinates...
	Could not converge backtransformation.
	Using first guess instead.

	--- Internal Coordinate Step in ANG or DEG, aJ/ANG or AJ/DEG ---
	 ---------------------------------------------------------------------------
	   Coordinate                Previous        Force       Change         New 
	   ----------                --------       ------       ------       ------
	    1 R(1,2)          =      1.088310     0.000001    -0.000006     1.088304
	    2 R(1,3)          =      1.086520     0.000001    -0.000005     1.086515
	    3 R(1,4)          =      1.530567     0.000027    -0.000005     1.530562
	    4 R(1,13)         =      1.532193     0.000075    -0.000004     1.532189
	    5 R(4,5)          =      1.086488    -0.000025    -0.000007     1.086481
	    6 R(4,6)          =      1.085365     0.000013    -0.000003     1.085362
	    7 R(4,7)          =      1.085554     0.000009    -0.000003     1.085550
	    8 R(8,9)          =      1.089621    -0.000045    -0.000017     1.089604
	    9 R(8,10)         =      1.087433     0.000010    -0.000012     1.087421
	   10 R(8,11)         =      1.405074    -0.000001     0.000037     1.405111
	   11 R(8,13)         =      1.519991     0.000012    -0.000008     1.519983
	   12 R(11,12)        =      0.946525    -0.000010    -0.000005     0.946520
	   13 R(13,14)        =      1.085957    -0.000001    -0.000008     1.085949
	   14 R(13,15)        =      1.086842    -0.000017    -0.000010     1.086831
	   15 B(1,4,5)        =    111.020922    -0.000000    -0.001147   111.019775
	   16 B(1,4,6)        =    112.117800     0.000000    -0.000369   112.117431
	   17 B(1,4,7)        =    110.765876     0.000000    -0.000441   110.765436
	   18 B(1,13,8)       =    114.347676    -0.000001    -0.003998   114.343679
	   19 B(1,13,14)      =    109.440119     0.000001     0.001301   109.441420
	   20 B(1,13,15)      =    110.103115     0.000000    -0.000738   110.102378
	   21 B(2,1,3)        =    106.027421    -0.000000     0.001055   106.028476
	   22 B(2,1,4)        =    109.421973     0.000000    -0.000219   109.421754
	   23 B(2,1,13)       =    109.499879     0.000000     0.000412   109.500291
	   24 B(3,1,4)        =    108.686207     0.000000    -0.000321   108.685886
	   25 B(3,1,13)       =    108.192995     0.000000     0.001286   108.194281
	   26 B(4,1,13)       =    114.650863    -0.000001    -0.001969   114.648894
	   27 B(5,4,6)        =    107.701373     0.000000     0.000594   107.701967
	   28 B(5,4,7)        =    107.705212     0.000000     0.000748   107.705960
	   29 B(6,4,7)        =    107.332340    -0.000000     0.000744   107.333085
	   30 B(8,11,12)      =    109.635372    -0.000001     0.002529   109.637901
	   31 B(8,13,14)      =    107.512897     0.000000     0.001148   107.514045
	   32 B(8,13,15)      =    108.517845     0.000000     0.000625   108.518469
	   33 B(9,8,10)       =    107.511262     0.000000     0.001677   107.512940
	   34 B(9,8,11)       =    110.599977    -0.000000    -0.000433   110.599544
	   35 B(9,8,13)       =    109.857042     0.000000    -0.000603   109.856439
	   36 B(10,8,11)      =    110.299387    -0.000000    -0.000562   110.298825
	   37 B(10,8,13)      =    110.819711     0.000000     0.000079   110.819791
	   38 B(11,8,13)      =    107.770502     0.000000    -0.000179   107.770323
	   39 B(14,13,15)     =    106.607668    -0.000000     0.002118   106.609785
	   40 D(1,13,8,9)     =     55.365449     0.000000     0.022648    55.388096
	   41 D(1,13,8,10)    =    -63.293317     0.000000     0.020905   -63.272412
	   42 D(1,13,8,11)    =    175.934257     0.000000     0.021661   175.955918
	   43 D(2,1,4,5)      =    179.106795    -0.000000     0.025834   179.132629
	   44 D(2,1,4,6)      =     58.590187     0.000000     0.026128    58.616315
	   45 D(2,1,4,7)      =    -61.279413    -0.000000     0.025732   -61.253681
	   46 D(2,1,13,8)     =    -57.119575    -0.000000    -0.068508   -57.188082
	   47 D(2,1,13,14)    =     63.542862    -0.000000    -0.068783    63.474080
	   48 D(2,1,13,15)    =   -179.588876     0.000000    -0.065876  -179.654752
	   49 D(3,1,4,5)      =    -65.533690    -0.000000     0.026794   -65.506896
	   50 D(3,1,4,6)      =    173.949702     0.000000     0.027089   173.976790
	   51 D(3,1,4,7)      =     54.080102    -0.000000     0.026693    54.106795
	   52 D(3,1,13,8)     =   -172.250564    -0.000000    -0.070678  -172.321242
	   53 D(3,1,13,14)    =    -51.588127    -0.000000    -0.070952   -51.659080
	   54 D(3,1,13,15)    =     65.280135    -0.000000    -0.068046    65.212089
	   55 D(4,1,13,8)     =     66.291024    -0.000000    -0.069904    66.221120
	   56 D(4,1,13,14)    =   -173.046539    -0.000000    -0.070179  -173.116718
	   57 D(4,1,13,15)    =    -56.178277    -0.000000    -0.067272   -56.245549
	   58 D(5,4,1,13)     =     55.654497     0.000000     0.026890    55.681388
	   59 D(6,4,1,13)     =    -64.862111     0.000000     0.027185   -64.834926
	   60 D(7,4,1,13)     =    175.268289     0.000000     0.026789   175.295078
	   61 D(9,8,11,12)    =    -61.312394     0.000000     0.000884   -61.311510
	   62 D(9,8,13,14)    =    -66.360605     0.000000     0.022754   -66.337850
	   63 D(9,8,13,15)    =    178.693473     0.000000     0.019372   178.712845
	   64 D(10,8,11,12)   =     57.488585    -0.000000     0.002335    57.490920
	   65 D(10,8,13,14)   =    174.980630    -0.000000     0.021012   175.001642
	   66 D(10,8,13,15)   =     60.034707    -0.000000     0.017630    60.052337
	   67 D(11,8,13,14)   =     54.208204    -0.000000     0.021767    54.229971
	   68 D(11,8,13,15)   =    -60.737718    -0.000000     0.018385   -60.719333
	   69 D(12,11,8,13)   =    178.586642     0.000000     0.001985   178.588627
	 ---------------------------------------------------------------------------
	Successfully symmetrized geometry.

  ==> Convergence Check <==

  Measures of convergence in internal coordinates in au.
  Criteria marked as inactive (o), active & met (*), and active & unmet ( ).
  ---------------------------------------------------------------------------------------------
   Step     Total Energy     Delta E     MAX Force     RMS Force      MAX Disp      RMS Disp   
  ---------------------------------------------------------------------------------------------
    Convergence Criteria             o    1.50e-05 *    1.00e-05 *    6.00e-05 *    4.00e-05 *
  ---------------------------------------------------------------------------------------------
      2    -232.14333670    6.12e-10 o    1.33e-05 *    3.54e-06 *    1.24e-03      4.84e-04    ~
  ---------------------------------------------------------------------------------------------

	Writing optimization data to binary file.
	Structure for next step:
	Cartesian Geometry (in Angstrom)
	    C    -1.2878232909  -0.7922625985  -0.3274654279
	    H    -0.9413464697  -1.8185089710  -0.2217454006
	    H    -1.9931987323  -0.7973964467  -1.1538635702
	    C    -2.0264693342  -0.3708293252   0.9450976661
	    H    -2.3711169214   0.6570399442   0.8733721578
	    H    -1.3980649815  -0.4474437965   1.8267149265
	    H    -2.8955543338  -0.9995822751   1.1117732776
	    C     1.0511436915   0.0731091428   0.2711228168
	    H     1.3891643627  -0.9537167086   0.4075294902
	    H     0.7455980388   0.4490877992   1.2446560436
	    O     2.0833014292   0.8674273144  -0.2561787705
	    H     2.8132870965   0.8814358110   0.3461704828
	    C    -0.1090732760   0.1086653787  -0.7101937128
	    H     0.2746224090  -0.1910090837  -1.6808935968
	    H    -0.4432785593   1.1377690514  -0.8124438311
			--------------------------
			 OPTKING Finished Execution 
			--------------------------

    Structure for next step:
    Molecular point group: c1
    Full point group: C1

    Geometry (in Angstrom), charge = 0, multiplicity = 1:

    C           -1.287795724954    -0.792262572463    -0.327487555023
    H           -0.941318903680    -1.818508944973    -0.221767527730
    H           -1.993171166318    -0.797396420654    -1.153885697311
    C           -2.026441768244    -0.370829299195     0.945075539035
    H           -2.371089355416     0.657039970212     0.873350030712
    H           -1.398037415554    -0.447443770451     1.826692799396
    H           -2.895526767874    -0.999582249107     1.111751150524
    C            1.051171257445     0.073109168777     0.271100689669
    H            1.389191928631    -0.953716682646     0.407507363147
    H            0.745625604746     0.449087825229     1.244633916483
    O            2.083328995176     0.867427340430    -0.256200897588
    H            2.813314662480     0.881435837030     0.346148355733
    C           -0.109045710005     0.108665404724    -0.710215839917
    H            0.274649975011    -0.191009057654    -1.680915723920
    H           -0.443250993375     1.137769077370    -0.812465958225

gradient() will perform analytic gradient computation.

*** tstart() called on wr86
*** at Thu Dec  6 15:26:39 2018

   => Loading Basis Set <=

    Name: 6-31G(D)
    Role: ORBITAL
    Keyword: BASIS
    atoms 1, 4, 8, 13               entry C          line   111 file /usr/local/hpc1/software_molmod/psi4/psi4conda/share/psi4/basis/6-31g_d_.gbs 
    atoms 2-3, 5-7, 9-10, 12, 14-15 entry H          line    44 file /usr/local/hpc1/software_molmod/psi4/psi4conda/share/psi4/basis/6-31g_d_.gbs 
    atoms 11                        entry O          line   145 file /usr/local/hpc1/software_molmod/psi4/psi4conda/share/psi4/basis/6-31g_d_.gbs 


         ---------------------------------------------------------
                                   SCF
            by Justin Turney, Rob Parrish, Andy Simmonett
                             and Daniel Smith
                              RHF Reference
                       16 Threads,  95367 MiB Core
         ---------------------------------------------------------

  ==> Geometry <==

    Molecular point group: c1
    Full point group: C1

    Geometry (in Angstrom), charge = 0, multiplicity = 1:

       Center              X                  Y                   Z               Mass       
    ------------   -----------------  -----------------  -----------------  -----------------
         C           -1.287795724954    -0.792262572463    -0.327487555023    12.000000000000
         H           -0.941318903680    -1.818508944973    -0.221767527730     1.007825032070
         H           -1.993171166318    -0.797396420654    -1.153885697311     1.007825032070
         C           -2.026441768244    -0.370829299195     0.945075539035    12.000000000000
         H           -2.371089355416     0.657039970212     0.873350030712     1.007825032070
         H           -1.398037415554    -0.447443770451     1.826692799396     1.007825032070
         H           -2.895526767874    -0.999582249107     1.111751150524     1.007825032070
         C            1.051171257445     0.073109168777     0.271100689669    12.000000000000
         H            1.389191928631    -0.953716682646     0.407507363147     1.007825032070
         H            0.745625604746     0.449087825229     1.244633916483     1.007825032070
         O            2.083328995176     0.867427340430    -0.256200897588    15.994914619560
         H            2.813314662480     0.881435837030     0.346148355733     1.007825032070
         C           -0.109045710005     0.108665404724    -0.710215839917    12.000000000000
         H            0.274649975011    -0.191009057654    -1.680915723920     1.007825032070
         H           -0.443250993375     1.137769077370    -0.812465958225     1.007825032070

  Running in c1 symmetry.

  Rotational constants: A =      0.42473  B =      0.07755  C =      0.07166 [cm^-1]
  Rotational constants: A =  12733.14447  B =   2324.99462  C =   2148.39009 [MHz]
  Nuclear repulsion =  188.085733557714832

  Charge       = 0
  Multiplicity = 1
  Electrons    = 42
  Nalpha       = 21
  Nbeta        = 21

  ==> Algorithm <==

  SCF Algorithm Type is DF.
  DIIS enabled.
  MOM disabled.
  Fractional occupation disabled.
  Guess Type is READ.
  Energy threshold   = 1.00e-08
  Density threshold  = 1.00e-08
  Integral threshold = 0.00e+00

  ==> Primary Basis <==

  Basis Set: 6-31G(D)
    Blend: 6-31G(D)
    Number of shells: 50
    Number of basis function: 95
    Number of Cartesian functions: 95
    Spherical Harmonics?: false
    Max angular momentum: 2

   => Loading Basis Set <=

    Name: (6-31G(D) AUX)
    Role: JKFIT
    Keyword: DF_BASIS_SCF
    atoms 1, 4, 8, 13               entry C          line   121 file /usr/local/hpc1/software_molmod/psi4/psi4conda/share/psi4/basis/cc-pvdz-jkfit.gbs 
    atoms 2-3, 5-7, 9-10, 12, 14-15 entry H          line    51 file /usr/local/hpc1/software_molmod/psi4/psi4conda/share/psi4/basis/cc-pvdz-jkfit.gbs 
    atoms 11                        entry O          line   221 file /usr/local/hpc1/software_molmod/psi4/psi4conda/share/psi4/basis/cc-pvdz-jkfit.gbs 

  Reading orbitals from file 180, no projection.

  ==> Pre-Iterations <==

   -------------------------------------------------------
    Irrep   Nso     Nmo     Nalpha   Nbeta   Ndocc  Nsocc
   -------------------------------------------------------
     A         95      95       0       0       0       0
   -------------------------------------------------------
    Total      95      95      21      21      21       0
   -------------------------------------------------------

  ==> Integral Setup <==

  ==> DiskDFJK: Density-Fitted J/K Matrices <==

    J tasked:                  Yes
    K tasked:                  Yes
    wK tasked:                  No
    OpenMP threads:             16
    Integrals threads:          16
    Memory (MB):             71525
    Algorithm:                Core
    Integral Cache:           NONE
    Schwarz Cutoff:          1E-12
    Fitting Condition:       1E-12

   => Auxiliary Basis Set <=

  Basis Set: (6-31G(D) AUX)
    Blend: CC-PVDZ-JKFIT
    Number of shells: 210
    Number of basis function: 655
    Number of Cartesian functions: 655
    Spherical Harmonics?: false
    Max angular momentum: 3

  Minimum eigenvalue in the overlap matrix is 4.1757264308E-03.
  Using Symmetric Orthogonalization.

  SCF Guess: Orbitals guess was supplied from a previous computation.

  ==> Iterations <==

                           Total Energy        Delta E     RMS |[F,P]|

   @DF-RHF iter   0:  -232.14336519419641   -2.32143e+02   3.86603e-05 
   @DF-RHF iter   1:  -232.14333666198274    2.85322e-05   8.14055e-06 
   @DF-RHF iter   2:  -232.14333669776317   -3.57804e-08   1.81139e-06 DIIS
   @DF-RHF iter   3:  -232.14333670265995   -4.89678e-09   4.40118e-07 DIIS
   @DF-RHF iter   4:  -232.14333670274669   -8.67431e-11   1.63455e-07 DIIS
   @DF-RHF iter   5:  -232.14333670276812   -2.14300e-11   4.83916e-08 DIIS
   @DF-RHF iter   6:  -232.14333670277028   -2.16005e-12   1.79135e-08 DIIS
   @DF-RHF iter   7:  -232.14333670277031   -2.84217e-14   3.91836e-09 DIIS

  ==> Post-Iterations <==

    Orbital Energies [Eh]
    ---------------------

    Doubly Occupied:                                                      

       1A    -20.551918     2A    -11.266941     3A    -11.218748  
       4A    -11.211276     5A    -11.211199     6A     -1.358640  
       7A     -1.069683     8A     -0.970968     9A     -0.869404  
      10A     -0.784689    11A     -0.694739    12A     -0.651454  
      13A     -0.617314    14A     -0.583616    15A     -0.556194  
      16A     -0.537716    17A     -0.507037    18A     -0.473592  
      19A     -0.473380    20A     -0.456351    21A     -0.433249  

    Virtual:                                                              

      22A      0.229298    23A      0.230300    24A      0.276932  
      25A      0.286659    26A      0.307034    27A      0.316837  
      28A      0.328974    29A      0.339423    30A      0.349322  
      31A      0.378473    32A      0.406747    33A      0.421725  
      34A      0.448409    35A      0.462622    36A      0.718391  
      37A      0.724400    38A      0.747127    39A      0.760286  
      40A      0.787773    41A      0.845154    42A      0.891464  
      43A      0.931233    44A      0.962299    45A      0.988662  
      46A      1.016013    47A      1.113759    48A      1.125657  
      49A      1.132903    50A      1.151950    51A      1.165120  
      52A      1.179801    53A      1.194720    54A      1.211075  
      55A      1.232818    56A      1.245033    57A      1.255094  
      58A      1.269411    59A      1.299226    60A      1.350017  
      61A      1.469595    62A      1.554321    63A      1.685532  
      64A      1.705906    65A      1.730419    66A      1.844923  
      67A      1.872946    68A      1.963698    69A      2.020143  
      70A      2.040414    71A      2.133221    72A      2.203160  
      73A      2.260761    74A      2.268258    75A      2.314467  
      76A      2.340840    77A      2.404142    78A      2.452185  
      79A      2.571855    80A      2.631813    81A      2.644701  
      82A      2.691583    83A      2.735246    84A      2.765850  
      85A      2.814765    86A      2.866732    87A      2.960870  
      88A      2.984486    89A      3.110006    90A      3.266081  
      91A      4.201338    92A      4.568818    93A      4.696485  
      94A      4.839736    95A      4.947032  

    Final Occupation by Irrep:
              A 
    DOCC [    21 ]

  Energy converged.

  @DF-RHF Final Energy:  -232.14333670277031

   => Energetics <=

    Nuclear Repulsion Energy =            188.0857335577148319
    One-Electron Energy =                -687.4619276943916475
    Two-Electron Energy =                 267.2328574339065312
    Total Energy =                       -232.1433367027702843



Properties will be evaluated at   0.000000,   0.000000,   0.000000 [a0]

Properties computed using the SCF density matrix

  Nuclear Dipole Moment: [e a0]
     X:    -4.5082      Y:    -1.9479      Z:     1.8184

  Electronic Dipole Moment: [e a0]
     X:     4.5132      Y:     1.6248      Z:    -1.2549

  Dipole Moment: [e a0]
     X:     0.0050      Y:    -0.3231      Z:     0.5636     Total:     0.6496

  Dipole Moment: [D]
     X:     0.0127      Y:    -0.8213      Z:     1.4324     Total:     1.6512


*** tstop() called on wr86 at Thu Dec  6 15:26:40 2018
Module time:
	user time   =      11.98 seconds =       0.20 minutes
	system time =       0.29 seconds =       0.00 minutes
	total time  =          1 seconds =       0.02 minutes
Total time:
	user time   =      77.90 seconds =       1.30 minutes
	system time =       2.71 seconds =       0.05 minutes
	total time  =          6 seconds =       0.10 minutes

*** tstart() called on wr86
*** at Thu Dec  6 15:26:40 2018


         ------------------------------------------------------------
                                   SCF GRAD                          
                          Rob Parrish, Justin Turney,                
                       Andy Simmonett, and Alex Sokolov              
         ------------------------------------------------------------

  ==> Geometry <==

    Molecular point group: c1
    Full point group: C1

    Geometry (in Angstrom), charge = 0, multiplicity = 1:

       Center              X                  Y                   Z               Mass       
    ------------   -----------------  -----------------  -----------------  -----------------
         C           -1.287795724954    -0.792262572463    -0.327487555023    12.000000000000
         H           -0.941318903680    -1.818508944973    -0.221767527730     1.007825032070
         H           -1.993171166318    -0.797396420654    -1.153885697311     1.007825032070
         C           -2.026441768244    -0.370829299195     0.945075539035    12.000000000000
         H           -2.371089355416     0.657039970212     0.873350030712     1.007825032070
         H           -1.398037415554    -0.447443770451     1.826692799396     1.007825032070
         H           -2.895526767874    -0.999582249107     1.111751150524     1.007825032070
         C            1.051171257445     0.073109168777     0.271100689669    12.000000000000
         H            1.389191928631    -0.953716682646     0.407507363147     1.007825032070
         H            0.745625604746     0.449087825229     1.244633916483     1.007825032070
         O            2.083328995176     0.867427340430    -0.256200897588    15.994914619560
         H            2.813314662480     0.881435837030     0.346148355733     1.007825032070
         C           -0.109045710005     0.108665404724    -0.710215839917    12.000000000000
         H            0.274649975011    -0.191009057654    -1.680915723920     1.007825032070
         H           -0.443250993375     1.137769077370    -0.812465958225     1.007825032070

  Nuclear repulsion =  188.085733557714832

  ==> Basis Set <==

  Basis Set: 6-31G(D)
    Blend: 6-31G(D)
    Number of shells: 50
    Number of basis function: 95
    Number of Cartesian functions: 95
    Spherical Harmonics?: false
    Max angular momentum: 2

  ==> DFJKGrad: Density-Fitted SCF Gradients <==

    Gradient:                    1
    J tasked:                  Yes
    K tasked:                  Yes
    wK tasked:                  No
    OpenMP threads:             16
    Integrals threads:          16
    Memory (MB):             71525
    Schwarz Cutoff:          0E+00
    Fitting Condition:       1E-12

   => Auxiliary Basis Set <=

  Basis Set: (6-31G(D) AUX)
    Blend: CC-PVDZ-JKFIT
    Number of shells: 210
    Number of basis function: 655
    Number of Cartesian functions: 655
    Spherical Harmonics?: false
    Max angular momentum: 3


  -Total Gradient:
     Atom            X                  Y                   Z
    ------   -----------------  -----------------  -----------------
       1        0.000002343056    -0.000000606422    -0.000000821660
       2       -0.000001608815     0.000003829165     0.000000077601
       3        0.000003046486     0.000005548605     0.000003178847
       4        0.000002098375     0.000003757524    -0.000001176806
       5       -0.000000760217    -0.000003319939    -0.000001907193
       6        0.000005509842     0.000001828095    -0.000002279674
       7        0.000004089992    -0.000001065245    -0.000001199733
       8       -0.000016029981    -0.000018496704     0.000003511037
       9       -0.000007067971     0.000004031615    -0.000000803000
      10       -0.000007136523    -0.000004558851    -0.000002709647
      11        0.000019719874     0.000008846902     0.000006378773
      12        0.000002661856     0.000007476623    -0.000009642755
      13       -0.000005788508     0.000001096141    -0.000000427349
      14        0.000000330146    -0.000003308102     0.000006887525
      15       -0.000001407619    -0.000005059408     0.000000934034


*** tstop() called on wr86 at Thu Dec  6 15:26:41 2018
Module time:
	user time   =      15.01 seconds =       0.25 minutes
	system time =       0.58 seconds =       0.01 minutes
	total time  =          1 seconds =       0.02 minutes
Total time:
	user time   =      92.93 seconds =       1.55 minutes
	system time =       3.29 seconds =       0.05 minutes
	total time  =          7 seconds =       0.12 minutes

			-----------------------------------------
			 OPTKING 2.0: for geometry optimizations 
			  - R.A. King,  Bethel University        
			-----------------------------------------

	Previous internal coordinate definitions found.
	---Fragment 1 Geometry and Gradient---
	 C          -2.4335812353       -1.4971592873       -0.6188617909
	 H          -1.7788349317       -3.4364838762       -0.4190798926
	 H          -3.7665476403       -1.5068608544       -2.1805279566
	 C          -3.8294199662       -0.7007658175        1.7859339437
	 H          -4.4807095183        1.2416256021        1.6503923762
	 H          -2.6419078389       -0.8455461860        3.4519491198
	 H          -5.4717526017       -1.8889366981        2.1009052024
	 C           1.9864257953        0.1381563068        0.5123060579
	 H           2.6251922911       -1.8022633386        0.7700773135
	 H           1.4090281906        0.8486529993        2.3520172379
	 O           3.9369212456        1.6392001136       -0.4841495314
	 H           5.3163942377        1.6656723357        0.6541255937
	 C          -0.2060665279        0.2053478550       -1.3421134327
	 H           0.5190132352       -0.3609548079       -3.1764703707
	 H          -0.8376229856        2.1500719587       -1.5353381533
	             0.0000023431       -0.0000006064       -0.0000008217
	            -0.0000016088        0.0000038292        0.0000000776
	             0.0000030465        0.0000055486        0.0000031788
	             0.0000020984        0.0000037575       -0.0000011768
	            -0.0000007602       -0.0000033199       -0.0000019072
	             0.0000055098        0.0000018281       -0.0000022797
	             0.0000040900       -0.0000010652       -0.0000011997
	            -0.0000160300       -0.0000184967        0.0000035110
	            -0.0000070680        0.0000040316       -0.0000008030
	            -0.0000071365       -0.0000045589       -0.0000027096
	             0.0000197199        0.0000088469        0.0000063788
	             0.0000026619        0.0000074766       -0.0000096428
	            -0.0000057885        0.0000010961       -0.0000004273
	             0.0000003301       -0.0000033081        0.0000068875
	            -0.0000014076       -0.0000050594        0.0000009340

	---Fragment 1 Intrafragment Coordinates---
	 - Coordinate -           - BOHR/RAD -       - ANG/DEG -
	 R(1,2)           =         2.056596	       1.088304
	 R(1,3)           =         2.053216	       1.086515
[...]
    Max angular momentum: 3


  -Total Gradient:
     Atom            X                  Y                   Z
    ------   -----------------  -----------------  -----------------
       1       -0.000000080235     0.000000007500     0.000000037179
       2        0.000000091080     0.000000063519     0.000000028865
       3       -0.000000147431    -0.000000046941     0.000000105142
       4        0.000000076771     0.000000020735    -0.000000145985
       5        0.000000136714    -0.000000004778    -0.000000007387
       6        0.000000005793    -0.000000069150    -0.000000010313
       7       -0.000000036151     0.000000017029    -0.000000113814
       8        0.000000138712    -0.000000796359    -0.000000508123
       9       -0.000000225067    -0.000000142903     0.000000198944
      10       -0.000000135879     0.000000018609    -0.000000214147
      11        0.000000396029     0.000000505504     0.000000185010
      12        0.000000135027     0.000000200449    -0.000000100375
      13       -0.000000396361     0.000000235697     0.000000351953
      14        0.000000149318    -0.000000074703     0.000000358556
      15       -0.000000108323     0.000000065791    -0.000000165508


*** tstop() called on wr86 at Thu Dec  6 15:26:55 2018
Module time:
	user time   =      15.46 seconds =       0.26 minutes
	system time =       0.61 seconds =       0.01 minutes
	total time  =          1 seconds =       0.02 minutes
Total time:
	user time   =     287.25 seconds =       4.79 minutes
	system time =       9.47 seconds =       0.16 minutes
	total time  =         21 seconds =       0.35 minutes

			-----------------------------------------
			 OPTKING 2.0: for geometry optimizations 
			  - R.A. King,  Bethel University        
			-----------------------------------------

	Previous internal coordinate definitions found.
	---Fragment 1 Geometry and Gradient---
	 C          -2.4337669867       -1.4968461978       -0.6186703294
	 H          -1.7791128504       -3.4362021016       -0.4187723542
	 H          -3.7666356371       -1.5066104349       -2.1804342408
	 C          -3.8297711401       -0.7003088585        1.7860094722
	 H          -4.4800500503        1.2424520027        1.6507857891
	 H          -2.6427497271       -0.8460750330        3.4522930783
	 H          -5.4727956122       -1.8877066769        2.1003339724
	 C           1.9865867754        0.1380328911        0.5122920235
	 H           2.6249917423       -1.8025077429        0.7702051782
	 H           1.4096167077        0.8488778603        2.3520191645
	 O           3.9372842443        1.6384795808       -0.4845366074
	 H           5.3168468555        1.6645854361        0.6536519082
	 C          -0.2061035947        0.2055325845       -1.3419079611
	 H           0.5187733941       -0.3606489480       -3.1763966680
	 H          -0.8374757726        2.1503492634       -1.5349505953
	            -0.0000000802        0.0000000075        0.0000000372
	             0.0000000911        0.0000000635        0.0000000289
	            -0.0000001474       -0.0000000469        0.0000001051
	             0.0000000768        0.0000000207       -0.0000001460
	             0.0000001367       -0.0000000048       -0.0000000074
	             0.0000000058       -0.0000000691       -0.0000000103
	            -0.0000000362        0.0000000170       -0.0000001138
	             0.0000001387       -0.0000007964       -0.0000005081
	            -0.0000002251       -0.0000001429        0.0000001989
	            -0.0000001359        0.0000000186       -0.0000002141
	             0.0000003960        0.0000005055        0.0000001850
	             0.0000001350        0.0000002004       -0.0000001004
	            -0.0000003964        0.0000002357        0.0000003520
	             0.0000001493       -0.0000000747        0.0000003586
	            -0.0000001083        0.0000000658       -0.0000001655

	---Fragment 1 Intrafragment Coordinates---
	 - Coordinate -           - BOHR/RAD -       - ANG/DEG -
	 R(1,2)           =         2.056607	       1.088310
	 R(1,3)           =         2.053227	       1.086521
	 R(1,4)           =         2.892367	       1.530574
	 R(1,13)          =         2.895453	       1.532208
	 R(4,5)           =         2.053160	       1.086486
	 R(4,6)           =         2.051041	       1.085364
	 R(4,7)           =         2.051400	       1.085554
	 R(8,9)           =         2.059072	       1.089614
	 R(8,10)          =         2.054943	       1.087429
	 R(8,11)          =         2.655227	       1.405085
	 R(8,13)          =         2.872369	       1.519992
	 R(11,12)         =         1.788672	       0.946524
	 R(13,14)         =         2.052159	       1.085956
	 R(13,15)         =         2.053828	       1.086839
	 B(1,4,5)         =         1.937665	     111.020035
	 B(1,4,6)         =         1.956839	     112.118608
	 B(1,4,7)         =         1.933234	     110.766121
	 B(1,13,8)        =         1.995723	     114.346507
	 B(1,13,14)       =         1.910107	     109.441094
	 B(1,13,15)       =         1.921658	     110.102905
	 B(2,1,3)         =         1.850516	     106.026771
	 B(2,1,4)         =         1.909770	     109.421763
	 B(2,1,13)        =         1.911133	     109.499864
	 B(3,1,4)         =         1.896926	     108.685843
	 B(3,1,13)        =         1.888347	     108.194324
	 B(4,1,13)        =         2.001033	     114.650740
	 B(5,4,6)         =         1.879741	     107.701233
	 B(5,4,7)         =         1.879811	     107.705243
	 B(6,4,7)         =         1.873302	     107.332273
	 B(8,11,12)       =         1.913447	     109.632413
	 B(8,13,14)       =         1.876466	     107.513587
	 B(8,13,15)       =         1.893991	     108.517680
	 B(9,8,10)        =         1.876453	     107.512850
	 B(9,8,11)        =         1.930298	     110.597908
	 B(9,8,13)        =         1.917377	     109.857629
	 B(10,8,11)       =         1.925060	     110.297795
	 B(10,8,13)       =         1.934203	     110.821652
	 B(11,8,13)       =         1.880942	     107.770036
	 B(14,13,15)      =         1.860654	     106.607631
	 D(1,13,8,9)      =         0.966479	      55.375191
	 D(1,13,8,10)     =        -1.104568	     -63.287110
	 D(1,13,8,11)     =         3.070759	     175.941549
	 D(2,1,4,5)       =         3.125894	     179.100524
	 D(2,1,4,6)       =         1.022486	      58.584160
	 D(2,1,4,7)       =        -1.069644	     -61.286064
	 D(2,1,13,8)      =        -0.997932	     -57.177301
	 D(2,1,13,14)     =         1.108039	      63.485950
	 D(2,1,13,15)     =        -3.135403	    -179.645380
	 D(3,1,4,5)       =        -1.143907	     -65.541049
	 D(3,1,4,6)       =         3.035871	     173.942587
	 D(3,1,4,7)       =         0.943741	      54.072363
	 D(3,1,13,8)      =        -3.007346	    -172.308237
	 D(3,1,13,14)     =        -0.901375	     -51.644986
	 D(3,1,13,15)     =         1.138368	      65.223684
	 D(4,1,13,8)      =         1.155983	      66.232919
	 D(4,1,13,14)     =        -3.021232	    -173.103830
	 D(4,1,13,15)     =        -0.981489	     -56.235160
	 D(5,4,1,13)      =         0.971250	      55.648500
	 D(6,4,1,13)      =        -1.132158	     -64.867864
	 D(7,4,1,13)      =         3.058897	     175.261912
	 D(9,8,11,12)     =        -1.070028	     -61.308105
	 D(9,8,13,14)     =        -1.158058	     -66.351847
	 D(9,8,13,15)     =         3.118938	     178.702000
	 D(10,8,11,12)    =         1.003434	      57.492535
	 D(10,8,13,14)    =         3.054079	     174.985851
	 D(10,8,13,15)    =         1.047890	      60.039698
	 D(11,8,13,14)    =         0.946222	      54.214510
	 D(11,8,13,15)    =        -1.059967	     -60.731643
	 D(12,11,8,13)    =         3.117014	     178.591721

	Current energy   :      -232.1433367142

	Energy change for the previous step:
		Projected    :         0.0000000004
		Actual       :         0.0000000001

	Performing BFGS update.
	Previous computed or guess Hessian on step 1.
	Denominators (dg)(dq) or (dq)(dq) are very small.
	 Skipping Hessian update for step 9.
	Denominators (dg)(dq) or (dq)(dq) are very small.
	 Skipping Hessian update for step 8.
	Denominators (dg)(dq) or (dq)(dq) are very small.
	 Skipping Hessian update for step 7.
	Denominators (dg)(dq) or (dq)(dq) are very small.
	 Skipping Hessian update for step 6.
	Denominators (dg)(dq) or (dq)(dq) are very small.
	 Skipping Hessian update for step 5.
	Denominators (dg)(dq) or (dq)(dq) are very small.
	 Skipping Hessian update for step 4.
	Denominators (dg)(dq) or (dq)(dq) are very small.
	 Skipping Hessian update for step 3.
	Denominators (dg)(dq) or (dq)(dq) are very small.
	 Skipping Hessian update for step 2.
	Steps to be used in Hessian update: 1
	Taking RFO optimization step.
	Going to follow RFO solution 1.
	Using RFO vector 1.
	Norm of target step-size    0.00014
	Projected energy change by RFO approximation:        -0.0000000004

	Back-transformation to cartesian coordinates...
	Successfully converged to displaced geometry.

	--- Internal Coordinate Step in ANG or DEG, aJ/ANG or AJ/DEG ---
	 ---------------------------------------------------------------------------
	   Coordinate                Previous        Force       Change         New 
	   ----------                --------       ------       ------       ------
	    1 R(1,2)          =      1.088310     0.000000     0.000000     1.088310
	    2 R(1,3)          =      1.086521    -0.000000    -0.000000     1.086521
	    3 R(1,4)          =      1.530574     0.000003     0.000001     1.530575
	    4 R(1,13)         =      1.532208     0.000000     0.000000     1.532208
	    5 R(4,5)          =      1.086486     0.000000     0.000000     1.086486
	    6 R(4,6)          =      1.085364    -0.000000    -0.000000     1.085364
	    7 R(4,7)          =      1.085554    -0.000000     0.000000     1.085554
	    8 R(8,9)          =      1.089614    -0.000001    -0.000000     1.089614
	    9 R(8,10)         =      1.087429     0.000001     0.000000     1.087429
	   10 R(8,11)         =      1.405085    -0.000006    -0.000001     1.405084
	   11 R(8,13)         =      1.519992     0.000000     0.000000     1.519992
	   12 R(11,12)        =      0.946524    -0.000000    -0.000000     0.946524
	   13 R(13,14)        =      1.085956     0.000002     0.000000     1.085956
	   14 R(13,15)        =      1.086839    -0.000001    -0.000000     1.086839
	   15 B(1,4,5)        =    111.020035     0.000000     0.000014   111.020049
	   16 B(1,4,6)        =    112.118608     0.000000     0.000012   112.118620
	   17 B(1,4,7)        =    110.766121     0.000000     0.000030   110.766151
	   18 B(1,13,8)       =    114.346507    -0.000000    -0.000022   114.346486
	   19 B(1,13,14)      =    109.441094    -0.000000     0.000012   109.441106
	   20 B(1,13,15)      =    110.102905     0.000000    -0.000009   110.102896
	   21 B(2,1,3)        =    106.026771    -0.000000    -0.000037   106.026734
	   22 B(2,1,4)        =    109.421763    -0.000000    -0.000006   109.421756
	   23 B(2,1,13)       =    109.499864    -0.000000     0.000011   109.499875
	   24 B(3,1,4)        =    108.685843     0.000000     0.000029   108.685872
	   25 B(3,1,13)       =    108.194324    -0.000000    -0.000053   108.194270
	   26 B(4,1,13)       =    114.650740     0.000000     0.000050   114.650790
	   27 B(5,4,6)        =    107.701233    -0.000000    -0.000009   107.701224
	   28 B(5,4,7)        =    107.705243    -0.000000    -0.000024   107.705219
	   29 B(6,4,7)        =    107.332273    -0.000000    -0.000026   107.332247
	   30 B(8,11,12)      =    109.632413    -0.000000    -0.000163   109.632250
	   31 B(8,13,14)      =    107.513587     0.000000     0.000172   107.513760
	   32 B(8,13,15)      =    108.517680    -0.000000    -0.000119   108.517561
	   33 B(9,8,10)       =    107.512850    -0.000000     0.000040   107.512890
	   34 B(9,8,11)       =    110.597908    -0.000000    -0.000270   110.597638
	   35 B(9,8,13)       =    109.857629     0.000000    -0.000060   109.857569
	   36 B(10,8,11)      =    110.297795     0.000000     0.000116   110.297912
	   37 B(10,8,13)      =    110.821652     0.000000     0.000249   110.821901
	   38 B(11,8,13)      =    107.770036    -0.000000    -0.000076   107.769960
	   39 B(14,13,15)     =    106.607631    -0.000000    -0.000032   106.607599
	   40 D(1,13,8,9)     =     55.375191     0.000000    -0.000537    55.374654
	   41 D(1,13,8,10)    =    -63.287110    -0.000000    -0.000703   -63.287813
	   42 D(1,13,8,11)    =    175.941549    -0.000000    -0.000946   175.940602
	   43 D(2,1,4,5)      =    179.100524     0.000000     0.002410   179.102934
	   44 D(2,1,4,6)      =     58.584160     0.000000     0.002404    58.586563
	   45 D(2,1,4,7)      =    -61.286064     0.000000     0.002409   -61.283656
	   46 D(2,1,13,8)     =    -57.177301    -0.000000     0.000853   -57.176447
	   47 D(2,1,13,14)    =     63.485950     0.000000     0.001069    63.487020
	   48 D(2,1,13,15)    =   -179.645380     0.000000     0.001032  -179.644347
	   49 D(3,1,4,5)      =    -65.541049     0.000000     0.002379   -65.538671
	   50 D(3,1,4,6)      =    173.942587     0.000000     0.002372   173.944959
	   51 D(3,1,4,7)      =     54.072363     0.000000     0.002377    54.074739
	   52 D(3,1,13,8)     =   -172.308237    -0.000000     0.000921  -172.307316
	   53 D(3,1,13,14)    =    -51.644986     0.000000     0.001137   -51.643849
	   54 D(3,1,13,15)    =     65.223684     0.000000     0.001100    65.224784
	   55 D(4,1,13,8)     =     66.232919    -0.000000     0.000890    66.233809
	   56 D(4,1,13,14)    =   -173.103830     0.000000     0.001106  -173.102724
	   57 D(4,1,13,15)    =    -56.235160     0.000000     0.001069   -56.234091
	   58 D(5,4,1,13)     =     55.648500     0.000000     0.002365    55.650865
	   59 D(6,4,1,13)     =    -64.867864     0.000000     0.002358   -64.865506
	   60 D(7,4,1,13)     =    175.261912     0.000000     0.002363   175.264275
	   61 D(9,8,11,12)    =    -61.308105    -0.000000     0.000369   -61.307737
	   62 D(9,8,13,14)    =    -66.351847     0.000000    -0.000663   -66.352510
	   63 D(9,8,13,15)    =    178.702000     0.000000    -0.000655   178.701345
	   64 D(10,8,11,12)   =     57.492535    -0.000000     0.000322    57.492856
	   65 D(10,8,13,14)   =    174.985851    -0.000000    -0.000829   174.985023
	   66 D(10,8,13,15)   =     60.039698    -0.000000    -0.000820    60.038878
	   67 D(11,8,13,14)   =     54.214510    -0.000000    -0.001072    54.213438
	   68 D(11,8,13,15)   =    -60.731643    -0.000000    -0.001064   -60.732707
	   69 D(12,11,8,13)   =    178.591721     0.000000     0.000648   178.592369
	 ---------------------------------------------------------------------------
	Successfully symmetrized geometry.

  ==> Convergence Check <==

  Measures of convergence in internal coordinates in au.
  Criteria marked as inactive (o), active & met (*), and active & unmet ( ).
  ---------------------------------------------------------------------------------------------
   Step     Total Energy     Delta E     MAX Force     RMS Force      MAX Disp      RMS Disp   
  ---------------------------------------------------------------------------------------------
    Convergence Criteria             o    1.50e-05 *    1.00e-05 *    6.00e-05 *    4.00e-05 *
  ---------------------------------------------------------------------------------------------
     10    -232.14333671    7.76e-11 o    7.57e-07 *    1.63e-07 *    4.21e-05 *    1.73e-05 *  ~
  ---------------------------------------------------------------------------------------------


  **** Optimization is complete! (in 10 steps) ****

  ==> Optimization Summary <==

  Measures of convergence in internal coordinates in au.
  --------------------------------------------------------------------------------------------------------------- ~
   Step         Total Energy             Delta E       MAX Force       RMS Force        MAX Disp        RMS Disp  ~
  --------------------------------------------------------------------------------------------------------------- ~
      1    -232.143336700609   -232.143336700609      0.00005991      0.00000933      0.00164661      0.00059070  ~
      2    -232.143336699997      0.000000000612      0.00001326      0.00000354      0.00123835      0.00048406  ~
      3    -232.143336702770     -0.000000002773      0.00002689      0.00000642      0.00094617      0.00038132  ~
      4    -232.143336710684     -0.000000007913      0.00001109      0.00000239      0.00069709      0.00025423  ~
      5    -232.143336713276     -0.000000002592      0.00000224      0.00000069      0.00047889      0.00017676  ~
      6    -232.143336713865     -0.000000000589      0.00000544      0.00000096      0.00028996      0.00011023  ~
      7    -232.143336714058     -0.000000000194      0.00000131      0.00000039      0.00018485      0.00007335  ~
      8    -232.143336714295     -0.000000000237      0.00000213      0.00000040      0.00011104      0.00004430  ~
      9    -232.143336714320     -0.000000000025      0.00000085      0.00000021      0.00006943      0.00002823  ~
     10    -232.143336714242      0.000000000078      0.00000076      0.00000016      0.00004207      0.00001728  ~
  --------------------------------------------------------------------------------------------------------------- ~

	Writing optimization data to binary file.
	Final energy is   -232.1433367142424
	Final (previous) structure:
	Cartesian Geometry (in Angstrom)
	    C    -1.2878940204  -0.7920968927  -0.3273862380
	    H    -0.9414659719  -1.8183598363  -0.2216047855
	    H    -1.9932177322  -0.7972639044  -1.1538361051
	    C    -2.0266276015  -0.3705874869   0.9451155070
	    H    -2.3707403800   0.6574772826   0.8735582159
	    H    -1.3984829236  -0.4477236242   1.8268748144
	    H    -2.8960787053  -0.9989313499   1.1114488686
	    C     1.0512564444   0.0730438600   0.2710932630
	    H     1.3890858028  -0.9538460159   0.4075750262
	    H     0.7459370345   0.4492068165   1.2446349360
	    O     2.0835210858   0.8670460509  -0.2564057294
	    H     2.8135541775   0.8808606746   0.3458976921
	    C    -0.1090653249   0.1087631593  -0.7101071090
	    H     0.2745230566  -0.1908472036  -1.6808767222
	    H    -0.4431730916   1.1379158207  -0.8122608714
	Saving final (previous) structure.
	Removing binary optimization data file.
			--------------------------
			 OPTKING Finished Execution 
			--------------------------

    Final optimized geometry and variables:
    Molecular point group: c1
    Full point group: C1

    Geometry (in Angstrom), charge = 0, multiplicity = 1:

    C           -1.287894020402    -0.792096892666    -0.327386237953
    H           -0.941465971945    -1.818359836293    -0.221604785451
    H           -1.993217732195    -0.797263904397    -1.153836105084
    C           -2.026627601458    -0.370587486909     0.945115506996
    H           -2.370740379971     0.657477282609     0.873558215854
    H           -1.398482923573    -0.447723624228     1.826874814415
    H           -2.896078705269    -0.998931349934     1.111448868620
    C            1.051256444425     0.073043860026     0.271093262988
    H            1.389085802756    -0.953846015857     0.407575026224
    H            0.745937034541     0.449206816522     1.244634936011
    O            2.083521085818     0.867046050901    -0.256405729372
    H            2.813554177503     0.880860674559     0.345897692146
    C           -0.109065324929     0.108763159338    -0.710107109016
    H            0.274523056596    -0.190847203559    -1.680876722155
    H           -0.443173091610     1.137915820703    -0.812260871363

	Removing binary optimization data file.
	Cleaning optimization helper files.

    Psi4 stopped on: Thursday, 06 December 2018 03:26PM
    Psi4 wall time for execution: 0:00:20.64

*** Psi4 exiting successfully. Buy a developer a beer!
