
    -----------------------------------------------------------------------
          Psi4: An Open-Source Ab Initio Electronic Structure Package
                               Psi4 1.2.1 release

                         Git: Rev {HEAD} 406f4de 


    R. M. Parrish, L. A. Burns, D. G. A. Smith, A. C. Simmonett,
    A. E. DePrince III, E. G. Hohenstein, U. Bozkaya, A. Yu. Sokolov,
    R. Di Remigio, R. M. Richard, J. F. Gonthier, A. M. James,
    H. R. McAlexander, A. Kumar, M. Saitow, X. Wang, B. P. Pritchard,
    P. Verma, H. F. Schaefer III, K. Patkowski, R. A. King, E. F. Valeev,
    F. A. Evangelista, J. M. Turney, T. D. Crawford, and C. D. Sherrill,
    J. Chem. Theory Comput. 13(7) pp 3185--3197 (2017).
    (doi: 10.1021/acs.jctc.7b00174)


                         Additional Contributions by
    P. Kraus, H. Kruse, M. H. Lechner, M. C. Schieber, and R. A. Shaw

    -----------------------------------------------------------------------


    Psi4 started on: Thursday, 06 December 2018 03:58PM

    Process ID: 224280
    Host:       wr86
    PSIDATADIR: /usr/local/hpc1/software_molmod/psi4/psi4conda/share/psi4
    Memory:     500.0 MiB
    Threads:    16
    
  ==> Input File <==

--------------------------------------------------------------------------
memory 100 Gb

molecule conf_04 {
0 1
  C    -1.287894020402    -0.792096892666    -0.327386237953
  H    -0.941465971945    -1.818359836293    -0.221604785451
  H    -1.993217732195    -0.797263904397    -1.153836105084
  C    -2.026627601458    -0.370587486909     0.945115506996
  H    -2.370740379971     0.657477282609     0.873558215854
  H    -1.398482923573    -0.447723624228     1.826874814415
  H    -2.896078705269    -0.998931349934     1.111448868620
  C     1.051256444425     0.073043860026     0.271093262988
  H     1.389085802756    -0.953846015857     0.407575026224
  H     0.745937034541     0.449206816522     1.244634936011
  O     2.083521085818     0.867046050901    -0.256405729372
  H     2.813554177503     0.880860674559     0.345897692146
  C    -0.109065324929     0.108763159338    -0.710107109016
  H     0.274523056596    -0.190847203559    -1.680876722155
  H    -0.443173091610     1.137915820703    -0.812260871363
}
set globals {
  reference rhf
  basis 6-31G(d)
}
frequency('scf', dertype=1)

--------------------------------------------------------------------------

  Memory set to  93.132 GiB by Python driver.
gradient() will perform analytic gradient computation.

*** tstart() called on wr86
*** at Thu Dec  6 15:58:51 2018

   => Loading Basis Set <=

    Name: 6-31G(D)
    Role: ORBITAL
    Keyword: BASIS
    atoms 1, 4, 8, 13               entry C          line   111 file /usr/local/hpc1/software_molmod/psi4/psi4conda/share/psi4/basis/6-31g_d_.gbs 
    atoms 2-3, 5-7, 9-10, 12, 14-15 entry H          line    44 file /usr/local/hpc1/software_molmod/psi4/psi4conda/share/psi4/basis/6-31g_d_.gbs 
    atoms 11                        entry O          line   145 file /usr/local/hpc1/software_molmod/psi4/psi4conda/share/psi4/basis/6-31g_d_.gbs 


         ---------------------------------------------------------
                                   SCF
            by Justin Turney, Rob Parrish, Andy Simmonett
                             and Daniel Smith
                              RHF Reference
                       16 Threads,  95367 MiB Core
         ---------------------------------------------------------

  ==> Geometry <==

    Molecular point group: c1
    Full point group: C1

    Geometry (in Angstrom), charge = 0, multiplicity = 1:

       Center              X                  Y                   Z               Mass       
    ------------   -----------------  -----------------  -----------------  -----------------
         C           -1.287894020402    -0.792096892666    -0.327386237953    12.000000000000
         H           -0.941465971945    -1.818359836293    -0.221604785451     1.007825032070
         H           -1.993217732195    -0.797263904397    -1.153836105084     1.007825032070
         C           -2.026627601458    -0.370587486909     0.945115506996    12.000000000000
         H           -2.370740379971     0.657477282609     0.873558215854     1.007825032070
         H           -1.398482923573    -0.447723624228     1.826874814415     1.007825032070
         H           -2.896078705269    -0.998931349934     1.111448868620     1.007825032070
         C            1.051256444425     0.073043860026     0.271093262988    12.000000000000
         H            1.389085802756    -0.953846015857     0.407575026224     1.007825032070
         H            0.745937034541     0.449206816522     1.244634936011     1.007825032070
         O            2.083521085818     0.867046050901    -0.256405729372    15.994914619560
         H            2.813554177503     0.880860674559     0.345897692146     1.007825032070
         C           -0.109065324929     0.108763159338    -0.710107109016    12.000000000000
         H            0.274523056596    -0.190847203559    -1.680876722155     1.007825032070
         H           -0.443173091610     1.137915820703    -0.812260871363     1.007825032070

  Running in c1 symmetry.

  Rotational constants: A =      0.42478  B =      0.07755  C =      0.07166 [cm^-1]
  Rotational constants: A =  12734.51121  B =   2324.80040  C =   2148.26403 [MHz]
  Nuclear repulsion =  188.083642075729557

  Charge       = 0
  Multiplicity = 1
  Electrons    = 42
  Nalpha       = 21
  Nbeta        = 21

  ==> Algorithm <==

  SCF Algorithm Type is DF.
  DIIS enabled.
  MOM disabled.
  Fractional occupation disabled.
  Guess Type is SAD.
  Energy threshold   = 1.00e-08
  Density threshold  = 1.00e-08
  Integral threshold = 0.00e+00

  ==> Primary Basis <==

  Basis Set: 6-31G(D)
    Blend: 6-31G(D)
    Number of shells: 50
    Number of basis function: 95
    Number of Cartesian functions: 95
    Spherical Harmonics?: false
    Max angular momentum: 2

   => Loading Basis Set <=

    Name: (6-31G(D) AUX)
    Role: JKFIT
    Keyword: DF_BASIS_SCF
    atoms 1, 4, 8, 13               entry C          line   121 file /usr/local/hpc1/software_molmod/psi4/psi4conda/share/psi4/basis/cc-pvdz-jkfit.gbs 
    atoms 2-3, 5-7, 9-10, 12, 14-15 entry H          line    51 file /usr/local/hpc1/software_molmod/psi4/psi4conda/share/psi4/basis/cc-pvdz-jkfit.gbs 
    atoms 11                        entry O          line   221 file /usr/local/hpc1/software_molmod/psi4/psi4conda/share/psi4/basis/cc-pvdz-jkfit.gbs 

  ==> Pre-Iterations <==

   -------------------------------------------------------
    Irrep   Nso     Nmo     Nalpha   Nbeta   Ndocc  Nsocc
   -------------------------------------------------------
     A         95      95       0       0       0       0
   -------------------------------------------------------
    Total      95      95      21      21      21       0
   -------------------------------------------------------

  ==> Integral Setup <==

  ==> DiskDFJK: Density-Fitted J/K Matrices <==

    J tasked:                  Yes
    K tasked:                  Yes
    wK tasked:                  No
    OpenMP threads:             16
    Integrals threads:          16
    Memory (MB):             71525
    Algorithm:                Core
    Integral Cache:           NONE
    Schwarz Cutoff:          1E-12
    Fitting Condition:       1E-12

   => Auxiliary Basis Set <=

  Basis Set: (6-31G(D) AUX)
    Blend: CC-PVDZ-JKFIT
    Number of shells: 210
    Number of basis function: 655
    Number of Cartesian functions: 655
    Spherical Harmonics?: false
    Max angular momentum: 3

  Minimum eigenvalue in the overlap matrix is 4.1759982123E-03.
  Using Symmetric Orthogonalization.

  SCF Guess: Superposition of Atomic Densities via on-the-fly atomic UHF.

  ==> Iterations <==

                           Total Energy        Delta E     RMS |[F,P]|

   @DF-RHF iter   0:  -233.76338047054080   -2.33763e+02   1.18064e-01 
   @DF-RHF iter   1:  -231.98360733027124    1.77977e+00   1.87720e-02 
   @DF-RHF iter   2:  -232.11831445459865   -1.34707e-01   9.13522e-03 DIIS
   @DF-RHF iter   3:  -232.13962624278844   -2.13118e-02   2.00156e-03 DIIS
   @DF-RHF iter   4:  -232.14316763962995   -3.54140e-03   3.66236e-04 DIIS
   @DF-RHF iter   5:  -232.14331625095619   -1.48611e-04   1.21595e-04 DIIS
   @DF-RHF iter   6:  -232.14333515414381   -1.89032e-05   4.57619e-05 DIIS
   @DF-RHF iter   7:  -232.14333661516577   -1.46102e-06   7.42765e-06 DIIS
   @DF-RHF iter   8:  -232.14333670712017   -9.19544e-08   1.87756e-06 DIIS
   @DF-RHF iter   9:  -232.14333671368746   -6.56729e-09   5.61287e-07 DIIS
   @DF-RHF iter  10:  -232.14333671430489   -6.17433e-10   1.64665e-07 DIIS
   @DF-RHF iter  11:  -232.14333671435841   -5.35181e-11   6.10466e-08 DIIS
   @DF-RHF iter  12:  -232.14333671436250   -4.09273e-12   1.43888e-08 DIIS
   @DF-RHF iter  13:  -232.14333671436250    0.00000e+00   3.54930e-09 DIIS

  ==> Post-Iterations <==

    Orbital Energies [Eh]
    ---------------------

    Doubly Occupied:                                                      

       1A    -20.551921     2A    -11.266943     3A    -11.218752  
       4A    -11.211279     5A    -11.211203     6A     -1.358655  
       7A     -1.069672     8A     -0.970966     9A     -0.869397  
      10A     -0.784693    11A     -0.694740    12A     -0.651450  
      13A     -0.617309    14A     -0.583617    15A     -0.556200  
      16A     -0.537714    17A     -0.507032    18A     -0.473591  
      19A     -0.473380    20A     -0.456352    21A     -0.433247  

    Virtual:                                                              

      22A      0.229293    23A      0.230297    24A      0.276942  
      25A      0.286657    26A      0.307022    27A      0.316832  
      28A      0.328972    29A      0.339440    30A      0.349302  
      31A      0.378451    32A      0.406752    33A      0.421703  
      34A      0.448409    35A      0.462634    36A      0.718389  
      37A      0.724408    38A      0.747122    39A      0.760286  
      40A      0.787772    41A      0.845154    42A      0.891466  
      43A      0.931230    44A      0.962309    45A      0.988657  
      46A      1.016015    47A      1.113765    48A      1.125639  
      49A      1.132888    50A      1.151939    51A      1.165091  
      52A      1.179800    53A      1.194705    54A      1.211083  
      55A      1.232807    56A      1.245005    57A      1.255090  
      58A      1.269384    59A      1.299214    60A      1.350007  
      61A      1.469562    62A      1.554331    63A      1.685543  
      64A      1.705871    65A      1.730408    66A      1.844920  
      67A      1.872934    68A      1.963672    69A      2.020167  
      70A      2.040394    71A      2.133242    72A      2.203125  
      73A      2.260737    74A      2.268237    75A      2.314456  
      76A      2.340849    77A      2.404147    78A      2.452187  
      79A      2.571865    80A      2.631866    81A      2.644688  
      82A      2.691526    83A      2.735262    84A      2.765885  
      85A      2.814759    86A      2.866687    87A      2.960874  
      88A      2.984486    89A      3.109991    90A      3.266077  
      91A      4.201331    92A      4.568792    93A      4.696462  
      94A      4.839746    95A      4.947019  

    Final Occupation by Irrep:
              A 
    DOCC [    21 ]

  Energy converged.

  @DF-RHF Final Energy:  -232.14333671436250

   => Energetics <=

    Nuclear Repulsion Energy =            188.0836420757295571
    One-Electron Energy =                -687.4577348954715035
    Two-Electron Energy =                 267.2307561053794416
    Total Energy =                       -232.1433367143624764



Properties will be evaluated at   0.000000,   0.000000,   0.000000 [a0]

Properties computed using the SCF density matrix

  Nuclear Dipole Moment: [e a0]
     X:    -4.5086      Y:    -1.9472      Z:     1.8188

  Electronic Dipole Moment: [e a0]
     X:     4.5137      Y:     1.6241      Z:    -1.2552

  Dipole Moment: [e a0]
     X:     0.0050      Y:    -0.3231      Z:     0.5636     Total:     0.6496

  Dipole Moment: [D]
     X:     0.0127      Y:    -0.8212      Z:     1.4325     Total:     1.6512


*** tstop() called on wr86 at Thu Dec  6 15:58:53 2018
Module time:
	user time   =      15.02 seconds =       0.25 minutes
	system time =       0.63 seconds =       0.01 minutes
	total time  =          2 seconds =       0.03 minutes
Total time:
	user time   =      15.02 seconds =       0.25 minutes
	system time =       0.63 seconds =       0.01 minutes
	total time  =          2 seconds =       0.03 minutes

*** tstart() called on wr86
*** at Thu Dec  6 15:58:53 2018


         ------------------------------------------------------------
                                   SCF GRAD                          
                          Rob Parrish, Justin Turney,                
                       Andy Simmonett, and Alex Sokolov              
         ------------------------------------------------------------

  ==> Geometry <==

    Molecular point group: c1
    Full point group: C1

    Geometry (in Angstrom), charge = 0, multiplicity = 1:

       Center              X                  Y                   Z               Mass       
    ------------   -----------------  -----------------  -----------------  -----------------
         C           -1.287894020402    -0.792096892666    -0.327386237953    12.000000000000
         H           -0.941465971945    -1.818359836293    -0.221604785451     1.007825032070
         H           -1.993217732195    -0.797263904397    -1.153836105084     1.007825032070
         C           -2.026627601458    -0.370587486909     0.945115506996    12.000000000000
         H           -2.370740379971     0.657477282609     0.873558215854     1.007825032070
         H           -1.398482923573    -0.447723624228     1.826874814415     1.007825032070
         H           -2.896078705269    -0.998931349934     1.111448868620     1.007825032070
         C            1.051256444425     0.073043860026     0.271093262988    12.000000000000
         H            1.389085802756    -0.953846015857     0.407575026224     1.007825032070
         H            0.745937034541     0.449206816522     1.244634936011     1.007825032070
         O            2.083521085818     0.867046050901    -0.256405729372    15.994914619560
         H            2.813554177503     0.880860674559     0.345897692146     1.007825032070
         C           -0.109065324929     0.108763159338    -0.710107109016    12.000000000000
         H            0.274523056596    -0.190847203559    -1.680876722155     1.007825032070
         H           -0.443173091610     1.137915820703    -0.812260871363     1.007825032070

  Nuclear repulsion =  188.083642075729557

  ==> Basis Set <==

  Basis Set: 6-31G(D)
    Blend: 6-31G(D)
    Number of shells: 50
    Number of basis function: 95
    Number of Cartesian functions: 95
    Spherical Harmonics?: false
    Max angular momentum: 2

  ==> DFJKGrad: Density-Fitted SCF Gradients <==

    Gradient:                    1
    J tasked:                  Yes
    K tasked:                  Yes
    wK tasked:                  No
    OpenMP threads:             16
    Integrals threads:          16
    Memory (MB):             71525
    Schwarz Cutoff:          0E+00
    Fitting Condition:       1E-12

   => Auxiliary Basis Set <=

  Basis Set: (6-31G(D) AUX)
    Blend: CC-PVDZ-JKFIT
    Number of shells: 210
    Number of basis function: 655
    Number of Cartesian functions: 655
    Spherical Harmonics?: false
    Max angular momentum: 3


  -Total Gradient:
     Atom            X                  Y                   Z
    ------   -----------------  -----------------  -----------------
       1       -0.000000079486     0.000000018385     0.000000045005
       2        0.000000095367     0.000000057749     0.000000028575
       3       -0.000000151260    -0.000000046269     0.000000099039
       4        0.000000077976     0.000000018584    -0.000000147545
       5        0.000000138579    -0.000000001242    -0.000000008134
       6        0.000000008447    -0.000000071389    -0.000000009786
       7       -0.000000037705     0.000000017332    -0.000000116034
       8        0.000000157835    -0.000000776911    -0.000000513788
       9       -0.000000222827    -0.000000150254     0.000000199281
      10       -0.000000139910     0.000000019267    -0.000000208234
      11        0.000000377154     0.000000511874     0.000000187211
      12        0.000000140972     0.000000185243    -0.000000103520
      13       -0.000000412218     0.000000225453     0.000000363663
      14        0.000000155296    -0.000000078570     0.000000349727
      15       -0.000000108222     0.000000070746    -0.000000165461


*** tstop() called on wr86 at Thu Dec  6 15:58:54 2018
Module time:
	user time   =      15.77 seconds =       0.26 minutes
	system time =       0.70 seconds =       0.01 minutes
	total time  =          1 seconds =       0.02 minutes
Total time:
	user time   =      30.81 seconds =       0.51 minutes
	system time =       1.33 seconds =       0.02 minutes
	total time  =          3 seconds =       0.05 minutes

  Based on options and gradient (rms=3.87E-07), recommend projecting translations and projecting rotations.
hessian() will perform frequency computation by finite difference of analytic gradients.

-------------------------------------------------------------

  Using finite-differences of gradients to determine vibrational frequencies and 
  normal modes.  Resulting frequencies are only valid at stationary points.
	Generating geometries for use with 3-point formula.
	Displacement size will be 5.00e-03.
	Number of atoms is 15.
	Number of irreps is 1.
	Number of SALCS is 39.
	Translations projected? 1. Rotations projected? 1.
	Index of salcs per irrep:
	 1 :  0  1  2  3  4  5  6  7  8  9  10  11  12  13  14  15  16  17  18  19  20  21  22  23  24  25  26  27  28  29  30  31  32  33  34  35  36  37  38 
	Number of SALC's per irrep:
		 Irrep 1: 39
	Number of geometries (including reference) is 79.
	Number of displacements per irrep:
	  Irrep 1: 78

  //>>>>>>>>>>>>>>>>>>>>>>>>>>>>>>>>>>>//
  //    Loading displacement 1 of 79   //
  //<<<<<<<<<<<<<<<<<<<<<<<<<<<<<<<<<<<//
gradient() will perform analytic gradient computation.

*** tstart() called on wr86
*** at Thu Dec  6 15:58:54 2018

   => Loading Basis Set <=

    Name: 6-31G(D)
    Role: ORBITAL
    Keyword: BASIS
    atoms 1, 4, 8, 13               entry C          line   111 file /usr/local/hpc1/software_molmod/psi4/psi4conda/share/psi4/basis/6-31g_d_.gbs 
    atoms 2-3, 5-7, 9-10, 12, 14-15 entry H          line    44 file /usr/local/hpc1/software_molmod/psi4/psi4conda/share/psi4/basis/6-31g_d_.gbs 
    atoms 11                        entry O          line   145 file /usr/local/hpc1/software_molmod/psi4/psi4conda/share/psi4/basis/6-31g_d_.gbs 


         ---------------------------------------------------------
                                   SCF
            by Justin Turney, Rob Parrish, Andy Simmonett
                             and Daniel Smith
                              RHF Reference
                       16 Threads,  95367 MiB Core
         ---------------------------------------------------------

  ==> Geometry <==

    Molecular point group: c1
    Full point group: C1

    Geometry (in Angstrom), charge = 0, multiplicity = 1:

       Center              X                  Y                   Z               Mass       
    ------------   -----------------  -----------------  -----------------  -----------------
         C           -1.288571456269    -0.792168025961    -0.327388126753    12.000000000000
         H           -0.941239966757    -1.818411060148    -0.221551927855     1.007825032070
         H           -1.993010305150    -0.797402316599    -1.153857787005     1.007825032070
         C           -2.026498568624    -0.370635513528     0.945074203595    12.000000000000
         H           -2.370654661227     0.657410946467     0.873462152915     1.007825032070
         H           -1.398375515513    -0.447705355515     1.826854715499     1.007825032070
         H           -2.895926678970    -0.999010446179     1.111410386572     1.007825032070
         C            1.051385040722     0.073102092266     0.271119904158    12.000000000000
         H            1.389255818566    -0.953766909862     0.407656197170     1.007825032070
         H            0.746021407225     0.449294188358     1.244636448761     1.007825032070
         O            2.083629632906     0.867126727854    -0.256384538333    15.994914619560
         H            2.813645020046     0.880999910663     0.345938999177     1.007825032070
         C           -0.108910454633     0.108727271409    -0.710114964571    12.000000000000
         H            0.274718695301    -0.190908657538    -1.680860578049     1.007825032070
         H           -0.443060714966     1.137860725510    -0.812323250093     1.007825032070

  Running in c1 symmetry.

  Rotational constants: A =      0.42479  B =      0.07754  C =      0.07165 [cm^-1]
  Rotational constants: A =  12734.74500  B =   2324.52719  C =   2148.00445 [MHz]
  Nuclear repulsion =  188.078141036548317

  Charge       = 0
  Multiplicity = 1
  Electrons    = 42
  Nalpha       = 21
  Nbeta        = 21

  ==> Algorithm <==

  SCF Algorithm Type is DF.
  DIIS enabled.
  MOM disabled.
  Fractional occupation disabled.
  Guess Type is SAD.
  Energy threshold   = 1.00e-08
  Density threshold  = 1.00e-08
  Integral threshold = 0.00e+00

  ==> Primary Basis <==

  Basis Set: 6-31G(D)
    Blend: 6-31G(D)
    Number of shells: 50
    Number of basis function: 95
    Number of Cartesian functions: 95
    Spherical Harmonics?: false
    Max angular momentum: 2

   => Loading Basis Set <=

    Name: (6-31G(D) AUX)
    Role: JKFIT
    Keyword: DF_BASIS_SCF
    atoms 1, 4, 8, 13               entry C          line   121 file /usr/local/hpc1/software_molmod/psi4/psi4conda/share/psi4/basis/cc-pvdz-jkfit.gbs 
    atoms 2-3, 5-7, 9-10, 12, 14-15 entry H          line    51 file /usr/local/hpc1/software_molmod/psi4/psi4conda/share/psi4/basis/cc-pvdz-jkfit.gbs 
    atoms 11                        entry O          line   221 file /usr/local/hpc1/software_molmod/psi4/psi4conda/share/psi4/basis/cc-pvdz-jkfit.gbs 

  ==> Pre-Iterations <==

   -------------------------------------------------------
    Irrep   Nso     Nmo     Nalpha   Nbeta   Ndocc  Nsocc
   -------------------------------------------------------
     A         95      95       0       0       0       0
   -------------------------------------------------------
    Total      95      95      21      21      21       0
   -------------------------------------------------------

  ==> Integral Setup <==

  ==> DiskDFJK: Density-Fitted J/K Matrices <==

    J tasked:                  Yes
    K tasked:                  Yes
    wK tasked:                  No
    OpenMP threads:             16
    Integrals threads:          16
    Memory (MB):             71525
    Algorithm:                Core
    Integral Cache:           NONE
    Schwarz Cutoff:          1E-12
    Fitting Condition:       1E-12

   => Auxiliary Basis Set <=

  Basis Set: (6-31G(D) AUX)
    Blend: CC-PVDZ-JKFIT
    Number of shells: 210
    Number of basis function: 655
    Number of Cartesian functions: 655
    Spherical Harmonics?: false
    Max angular momentum: 3

  Minimum eigenvalue in the overlap matrix is 4.1777308272E-03.
  Using Symmetric Orthogonalization.

  SCF Guess: Superposition of Atomic Densities via on-the-fly atomic UHF.

  ==> Iterations <==

                           Total Energy        Delta E     RMS |[F,P]|

   @DF-RHF iter   0:  -233.67981008200928   -2.33680e+02   1.65901e-01 
   @DF-RHF iter   1:  -232.00130194660466    1.67851e+00   1.91066e-02 
   @DF-RHF iter   2:  -232.12273891583325   -1.21437e-01   4.71076e-03 DIIS
   @DF-RHF iter   3:  -232.14037238270760   -1.76335e-02   2.64206e-03 DIIS
   @DF-RHF iter   4:  -232.14321016537465   -2.83778e-03   4.16943e-04 DIIS
   @DF-RHF iter   5:  -232.14332113091999   -1.10966e-04   1.45579e-04 DIIS
   @DF-RHF iter   6:  -232.14333492217696   -1.37913e-05   2.76284e-05 DIIS
   @DF-RHF iter   7:  -232.14333587912458   -9.56948e-07   5.48440e-06 DIIS
   @DF-RHF iter   8:  -232.14333592844213   -4.93175e-08   1.32620e-06 DIIS
   @DF-RHF iter   9:  -232.14333593133102   -2.88890e-09   4.07268e-07 DIIS
   @DF-RHF iter  10:  -232.14333593160728   -2.76259e-10   1.00212e-07 DIIS
   @DF-RHF iter  11:  -232.14333593162661   -1.93268e-11   2.23291e-08 DIIS
   @DF-RHF iter  12:  -232.14333593162786   -1.25056e-12   8.37371e-09 DIIS

  ==> Post-Iterations <==

    Orbital Energies [Eh]
    ---------------------

    Doubly Occupied:                                                      

       1A    -20.551920     2A    -11.266944     3A    -11.218742  
       4A    -11.211270     5A    -11.211216     6A     -1.358653  
       7A     -1.069618     8A     -0.971014     9A     -0.869360  
      10A     -0.784695    11A     -0.694733    12A     -0.651434  
      13A     -0.617345    14A     -0.583600    15A     -0.556222  
      16A     -0.537726    17A     -0.507075    18A     -0.473645  
      19A     -0.473141    20A     -0.456458    21A     -0.433249  

    Virtual:                                                              

      22A      0.229299    23A      0.230300    24A      0.276934  
      25A      0.286654    26A      0.307053    27A      0.316816  
      28A      0.329046    29A      0.339450    30A      0.349311  
      31A      0.378448    32A      0.406769    33A      0.421725  
      34A      0.448249    35A      0.462573    36A      0.718356  
      37A      0.724384    38A      0.747156    39A      0.760294  
      40A      0.787799    41A      0.845132    42A      0.891417  
      43A      0.931274    44A      0.962312    45A      0.988563  
      46A      1.016040    47A      1.113664    48A      1.125638  
      49A      1.132896    50A      1.152016    51A      1.165003  
      52A      1.179785    53A      1.194817    54A      1.211093  
      55A      1.232890    56A      1.244932    57A      1.255235  
      58A      1.269362    59A      1.299201    60A      1.349870  
      61A      1.469536    62A      1.554351    63A      1.685473  
      64A      1.705853    65A      1.730425    66A      1.844879  
      67A      1.872809    68A      1.963605    69A      2.020148  
      70A      2.040380    71A      2.133360    72A      2.203166  
      73A      2.260643    74A      2.268373    75A      2.314459  
      76A      2.340604    77A      2.404224    78A      2.452144  
      79A      2.571879    80A      2.631926    81A      2.644995  
      82A      2.691561    83A      2.735388    84A      2.765732  
      85A      2.814535    86A      2.866548    87A      2.960848  
      88A      2.984470    89A      3.109821    90A      3.266024  
      91A      4.201283    92A      4.568736    93A      4.696528  
      94A      4.839674    95A      4.946983  

    Final Occupation by Irrep:
              A 
    DOCC [    21 ]

  Energy converged.

  @DF-RHF Final Energy:  -232.14333593162786

   => Energetics <=

    Nuclear Repulsion Energy =            188.0781410365483168
    One-Electron Energy =                -687.4468352161760549
    Two-Electron Energy =                 267.2253582479998499
    Total Energy =                       -232.1433359316278597



Properties will be evaluated at   0.000000,   0.000000,   0.000000 [a0]

Properties computed using the SCF density matrix

  Nuclear Dipole Moment: [e a0]
     X:    -4.5073      Y:    -1.9473      Z:     1.8187

  Electronic Dipole Moment: [e a0]
     X:     4.5120      Y:     1.6243      Z:    -1.2552

  Dipole Moment: [e a0]
     X:     0.0047      Y:    -0.3230      Z:     0.5636     Total:     0.6496

  Dipole Moment: [D]
     X:     0.0120      Y:    -0.8211      Z:     1.4325     Total:     1.6511


*** tstop() called on wr86 at Thu Dec  6 15:58:55 2018
Module time:
	user time   =      17.79 seconds =       0.30 minutes
	system time =       0.52 seconds =       0.01 minutes
	total time  =          1 seconds =       0.02 minutes
Total time:
	user time   =      48.75 seconds =       0.81 minutes
	system time =       1.86 seconds =       0.03 minutes
	total time  =          4 seconds =       0.07 minutes

*** tstart() called on wr86
*** at Thu Dec  6 15:58:55 2018


         ------------------------------------------------------------
                                   SCF GRAD                          
                          Rob Parrish, Justin Turney,                
                       Andy Simmonett, and Alex Sokolov              
         ------------------------------------------------------------

  ==> Geometry <==

    Molecular point group: c1
    Full point group: C1

    Geometry (in Angstrom), charge = 0, multiplicity = 1:

       Center              X                  Y                   Z               Mass       
    ------------   -----------------  -----------------  -----------------  -----------------
         C           -1.288571456269    -0.792168025961    -0.327388126753    12.000000000000
         H           -0.941239966757    -1.818411060148    -0.221551927855     1.007825032070
         H           -1.993010305150    -0.797402316599    -1.153857787005     1.007825032070
         C           -2.026498568624    -0.370635513528     0.945074203595    12.000000000000
         H           -2.370654661227     0.657410946467     0.873462152915     1.007825032070
         H           -1.398375515513    -0.447705355515     1.826854715499     1.007825032070
         H           -2.895926678970    -0.999010446179     1.111410386572     1.007825032070
         C            1.051385040722     0.073102092266     0.271119904158    12.000000000000
         H            1.389255818566    -0.953766909862     0.407656197170     1.007825032070
         H            0.746021407225     0.449294188358     1.244636448761     1.007825032070
         O            2.083629632906     0.867126727854    -0.256384538333    15.994914619560
         H            2.813645020046     0.880999910663     0.345938999177     1.007825032070
         C           -0.108910454633     0.108727271409    -0.710114964571    12.000000000000
         H            0.274718695301    -0.190908657538    -1.680860578049     1.007825032070
         H           -0.443060714966     1.137860725510    -0.812323250093     1.007825032070

  Nuclear repulsion =  188.078141036548317

  ==> Basis Set <==

  Basis Set: 6-31G(D)
    Blend: 6-31G(D)
    Number of shells: 50
    Number of basis function: 95
    Number of Cartesian functions: 95
    Spherical Harmonics?: false
    Max angular momentum: 2

  ==> DFJKGrad: Density-Fitted SCF Gradients <==

    Gradient:                    1
    J tasked:                  Yes
    K tasked:                  Yes
    wK tasked:                  No
    OpenMP threads:             16
    Integrals threads:          16
    Memory (MB):             71525
    Schwarz Cutoff:          0E+00
    Fitting Condition:       1E-12

   => Auxiliary Basis Set <=

  Basis Set: (6-31G(D) AUX)
    Blend: CC-PVDZ-JKFIT
    Number of shells: 210
    Number of basis function: 655
    Number of Cartesian functions: 655
    Spherical Harmonics?: false
    Max angular momentum: 3


  -Total Gradient:
     Atom            X                  Y                   Z
    ------   -----------------  -----------------  -----------------
       1       -0.000961775861     0.000055031194    -0.000094230349
       2        0.000146257778    -0.000134395583     0.000017274682
       3        0.000289017457    -0.000003665775     0.000227148258
       4        0.000205022360    -0.000029878477    -0.000078164420
       5        0.000009936005    -0.000004277000    -0.000017695252
       6       -0.000023831524     0.000012877718     0.000034213890
       7        0.000021431193    -0.000018446885    -0.000043365082
       8        0.000034130474     0.000027011873    -0.000014559625
       9       -0.000002230856    -0.000000099747    -0.000001482388
      10       -0.000002025678    -0.000000402371    -0.000000579785
      11        0.000006731898     0.000000385072     0.000006906317
      12        0.000001147818     0.000001925492    -0.000001294360
      13        0.000275770970     0.000091036346    -0.000036457342
      14        0.000017700040     0.000015032945    -0.000002499623
      15       -0.000017282078    -0.000012134806     0.000004785080


*** tstop() called on wr86 at Thu Dec  6 15:58:56 2018
Module time:
	user time   =      14.92 seconds =       0.25 minutes
	system time =       0.62 seconds =       0.01 minutes
	total time  =          1 seconds =       0.02 minutes
Total time:
	user time   =      63.69 seconds =       1.06 minutes
	system time =       2.48 seconds =       0.04 minutes
	total time  =          5 seconds =       0.08 minutes

  //>>>>>>>>>>>>>>>>>>>>>>>>>>>>>>>>>>>//
  //    Loading displacement 2 of 79   //
  //<<<<<<<<<<<<<<<<<<<<<<<<<<<<<<<<<<<//
gradient() will perform analytic gradient computation.

*** tstart() called on wr86
*** at Thu Dec  6 15:58:56 2018

   => Loading Basis Set <=

    Name: 6-31G(D)
    Role: ORBITAL
    Keyword: BASIS
    atoms 1, 4, 8, 13               entry C          line   111 file /usr/local/hpc1/software_molmod/psi4/psi4conda/share/psi4/basis/6-31g_d_.gbs 
    atoms 2-3, 5-7, 9-10, 12, 14-15 entry H          line    44 file /usr/local/hpc1/software_molmod/psi4/psi4conda/share/psi4/basis/6-31g_d_.gbs 
    atoms 11                        entry O          line   145 file /usr/local/hpc1/software_molmod/psi4/psi4conda/share/psi4/basis/6-31g_d_.gbs 


         ---------------------------------------------------------
                                   SCF
            by Justin Turney, Rob Parrish, Andy Simmonett
                             and Daniel Smith
                              RHF Reference
                       16 Threads,  95367 MiB Core
         ---------------------------------------------------------

  ==> Geometry <==

    Molecular point group: c1
    Full point group: C1

    Geometry (in Angstrom), charge = 0, multiplicity = 1:

       Center              X                  Y                   Z               Mass       
    ------------   -----------------  -----------------  -----------------  -----------------
         C           -1.287216584536    -0.792025759370    -0.327384349153    12.000000000000
         H           -0.941691977133    -1.818308612438    -0.221657643047     1.007825032070
         H           -1.993425159240    -0.797125492195    -1.153814423163     1.007825032070
         C           -2.026756634292    -0.370539460290     0.945156810397    12.000000000000
         H           -2.370826098715     0.657543618752     0.873654278793     1.007825032070
         H           -1.398590331634    -0.447741892941     1.826894913331     1.007825032070
         H           -2.896230731569    -0.998852253689     1.111487350667     1.007825032070
         C            1.051127848127     0.072985627786     0.271066621818    12.000000000000
         H            1.388915786946    -0.953925121851     0.407493855278     1.007825032070
         H            0.745852661856     0.449119444686     1.244633423261     1.007825032070
         O            2.083412538729     0.866965373949    -0.256426920411    15.994914619560
         H            2.813463334959     0.880721438455     0.345856385114     1.007825032070
         C           -0.109220195225     0.108799047267    -0.710099253461    12.000000000000
         H            0.274327417890    -0.190785749580    -1.680892866261     1.007825032070
         H           -0.443285468254     1.137970915896    -0.812198492633     1.007825032070

  Running in c1 symmetry.

  Rotational constants: A =      0.42477  B =      0.07756  C =      0.07167 [cm^-1]
  Rotational constants: A =  12734.27738  B =   2325.07352  C =   2148.52355 [MHz]
  Nuclear repulsion =  188.089146480582343

  Charge       = 0
  Multiplicity = 1
  Electrons    = 42
  Nalpha       = 21
  Nbeta        = 21

  ==> Algorithm <==

  SCF Algorithm Type is DF.
  DIIS enabled.
  MOM disabled.
  Fractional occupation disabled.
  Guess Type is SAD.
  Energy threshold   = 1.00e-08
  Density threshold  = 1.00e-08
  Integral threshold = 0.00e+00

  ==> Primary Basis <==

  Basis Set: 6-31G(D)
    Blend: 6-31G(D)
    Number of shells: 50
    Number of basis function: 95
    Number of Cartesian functions: 95
    Spherical Harmonics?: false
    Max angular momentum: 2

   => Loading Basis Set <=

    Name: (6-31G(D) AUX)
    Role: JKFIT
    Keyword: DF_BASIS_SCF
    atoms 1, 4, 8, 13               entry C          line   121 file /usr/local/hpc1/software_molmod/psi4/psi4conda/share/psi4/basis/cc-pvdz-jkfit.gbs 
    atoms 2-3, 5-7, 9-10, 12, 14-15 entry H          line    51 file /usr/local/hpc1/software_molmod/psi4/psi4conda/share/psi4/basis/cc-pvdz-jkfit.gbs 
    atoms 11                        entry O          line   221 file /usr/local/hpc1/software_molmod/psi4/psi4conda/share/psi4/basis/cc-pvdz-jkfit.gbs 

  ==> Pre-Iterations <==

   -------------------------------------------------------
    Irrep   Nso     Nmo     Nalpha   Nbeta   Ndocc  Nsocc
   -------------------------------------------------------
     A         95      95       0       0       0       0
   -------------------------------------------------------
    Total      95      95      21      21      21       0
   -------------------------------------------------------

  ==> Integral Setup <==

  ==> DiskDFJK: Density-Fitted J/K Matrices <==

    J tasked:                  Yes
    K tasked:                  Yes
    wK tasked:                  No
    OpenMP threads:             16
    Integrals threads:          16
    Memory (MB):             71525
    Algorithm:                Core
    Integral Cache:           NONE
    Schwarz Cutoff:          1E-12
    Fitting Condition:       1E-12

   => Auxiliary Basis Set <=

  Basis Set: (6-31G(D) AUX)
    Blend: CC-PVDZ-JKFIT
    Number of shells: 210
    Number of basis function: 655
    Number of Cartesian functions: 655
    Spherical Harmonics?: false
    Max angular momentum: 3

  Minimum eigenvalue in the overlap matrix is 4.1742604697E-03.
  Using Symmetric Orthogonalization.

  SCF Guess: Superposition of Atomic Densities via on-the-fly atomic UHF.

  ==> Iterations <==

                           Total Energy        Delta E     RMS |[F,P]|

   @DF-RHF iter   0:  -233.99245200183822   -2.33992e+02   1.59730e-01 
   @DF-RHF iter   1:  -232.01128646123220    1.98117e+00   9.74925e-03 
   @DF-RHF iter   2:  -232.12500777433064   -1.13721e-01   3.95217e-03 DIIS
   @DF-RHF iter   3:  -232.13990690707047   -1.48991e-02   2.41730e-03 DIIS
   @DF-RHF iter   4:  -232.14319901844311   -3.29211e-03   4.18266e-04 DIIS
   @DF-RHF iter   5:  -232.14332548839170   -1.26470e-04   1.13009e-04 DIIS
   @DF-RHF iter   6:  -232.14333517187313   -9.68348e-06   2.29667e-05 DIIS
   @DF-RHF iter   7:  -232.14333585665895   -6.84786e-07   6.98200e-06 DIIS
   @DF-RHF iter   8:  -232.14333592821072   -7.15518e-08   1.49890e-06 DIIS
   @DF-RHF iter   9:  -232.14333593160620   -3.39548e-09   3.85327e-07 DIIS
   @DF-RHF iter  10:  -232.14333593182806   -2.21860e-10   1.04491e-07 DIIS
   @DF-RHF iter  11:  -232.14333593184381   -1.57456e-11   2.53449e-08 DIIS
   @DF-RHF iter  12:  -232.14333593184534   -1.53477e-12   8.43093e-09 DIIS

  ==> Post-Iterations <==

    Orbital Energies [Eh]
    ---------------------

    Doubly Occupied:                                                      

       1A    -20.551922     2A    -11.266942     3A    -11.218763  
       4A    -11.211289     5A    -11.211189     6A     -1.358657  
       7A     -1.069725     8A     -0.970917     9A     -0.869434  
      10A     -0.784691    11A     -0.694747    12A     -0.651466  
      13A     -0.617273    14A     -0.583635    15A     -0.556177  
      16A     -0.537702    17A     -0.506989    18A     -0.473643  
      19A     -0.473511    20A     -0.456245    21A     -0.433246  

    Virtual:                                                              

      22A      0.229286    23A      0.230293    24A      0.276949  
      25A      0.286659    26A      0.306991    27A      0.316847  
      28A      0.328897    29A      0.339430    30A      0.349293  
      31A      0.378453    32A      0.406735    33A      0.421681  
      34A      0.448570    35A      0.462695    36A      0.718421  
      37A      0.724432    38A      0.747088    39A      0.760278  
      40A      0.787746    41A      0.845175    42A      0.891514  
      43A      0.931185    44A      0.962305    45A      0.988754  
      46A      1.015991    47A      1.113866    48A      1.125640  
      49A      1.132879    50A      1.151860    51A      1.165180  
      52A      1.179814    53A      1.194592    54A      1.211073  
      55A      1.232723    56A      1.245079    57A      1.254949  
      58A      1.269406    59A      1.299228    60A      1.350144  
      61A      1.469588    62A      1.554312    63A      1.685613  
      64A      1.705889    65A      1.730391    66A      1.844961  
      67A      1.873059    68A      1.963738    69A      2.020186  
      70A      2.040409    71A      2.133125    72A      2.203081  
      73A      2.260833    74A      2.268100    75A      2.314454  
      76A      2.341094    77A      2.404070    78A      2.452231  
      79A      2.571852    80A      2.631799    81A      2.644385  
      82A      2.691492    83A      2.735137    84A      2.766036  
      85A      2.814985    86A      2.866827    87A      2.960900  
      88A      2.984502    89A      3.110160    90A      3.266130  
      91A      4.201379    92A      4.568849    93A      4.696397  
      94A      4.839818    95A      4.947053  

    Final Occupation by Irrep:
              A 
    DOCC [    21 ]

  Energy converged.

  @DF-RHF Final Energy:  -232.14333593184534

   => Energetics <=

    Nuclear Repulsion Energy =            188.0891464805823432
    One-Electron Energy =                -687.4686362811352183
    Two-Electron Energy =                 267.2361538687075040
    Total Energy =                       -232.1433359318453427



Properties will be evaluated at   0.000000,   0.000000,   0.000000 [a0]

Properties computed using the SCF density matrix

  Nuclear Dipole Moment: [e a0]
     X:    -4.5100      Y:    -1.9471      Z:     1.8188

  Electronic Dipole Moment: [e a0]
     X:     4.5153      Y:     1.6239      Z:    -1.2552

  Dipole Moment: [e a0]
     X:     0.0053      Y:    -0.3231      Z:     0.5636     Total:     0.6497

  Dipole Moment: [D]
     X:     0.0134      Y:    -0.8213      Z:     1.4325     Total:     1.6513


*** tstop() called on wr86 at Thu Dec  6 15:58:58 2018
Module time:
	user time   =      17.38 seconds =       0.29 minutes
	system time =       0.50 seconds =       0.01 minutes
	total time  =          2 seconds =       0.03 minutes
Total time:
	user time   =      81.20 seconds =       1.35 minutes
	system time =       2.98 seconds =       0.05 minutes
	total time  =          7 seconds =       0.12 minutes

*** tstart() called on wr86
*** at Thu Dec  6 15:58:58 2018


         ------------------------------------------------------------
                                   SCF GRAD                          
                          Rob Parrish, Justin Turney,                
                       Andy Simmonett, and Alex Sokolov              
         ------------------------------------------------------------

  ==> Geometry <==

    Molecular point group: c1
    Full point group: C1

    Geometry (in Angstrom), charge = 0, multiplicity = 1:

       Center              X                  Y                   Z               Mass       
    ------------   -----------------  -----------------  -----------------  -----------------
         C           -1.287216584536    -0.792025759370    -0.327384349153    12.000000000000
         H           -0.941691977133    -1.818308612438    -0.221657643047     1.007825032070
         H           -1.993425159240    -0.797125492195    -1.153814423163     1.007825032070
         C           -2.026756634292    -0.370539460290     0.945156810397    12.000000000000
         H           -2.370826098715     0.657543618752     0.873654278793     1.007825032070
         H           -1.398590331634    -0.447741892941     1.826894913331     1.007825032070
         H           -2.896230731569    -0.998852253689     1.111487350667     1.007825032070
         C            1.051127848127     0.072985627786     0.271066621818    12.000000000000
         H            1.388915786946    -0.953925121851     0.407493855278     1.007825032070
         H            0.745852661856     0.449119444686     1.244633423261     1.007825032070
         O            2.083412538729     0.866965373949    -0.256426920411    15.994914619560
         H            2.813463334959     0.880721438455     0.345856385114     1.007825032070
         C           -0.109220195225     0.108799047267    -0.710099253461    12.000000000000
         H            0.274327417890    -0.190785749580    -1.680892866261     1.007825032070
         H           -0.443285468254     1.137970915896    -0.812198492633     1.007825032070

  Nuclear repulsion =  188.089146480582343

  ==> Basis Set <==

  Basis Set: 6-31G(D)
    Blend: 6-31G(D)
    Number of shells: 50
    Number of basis function: 95
    Number of Cartesian functions: 95
    Spherical Harmonics?: false
    Max angular momentum: 2

  ==> DFJKGrad: Density-Fitted SCF Gradients <==

    Gradient:                    1
    J tasked:                  Yes
    K tasked:                  Yes
    wK tasked:                  No
    OpenMP threads:             16
    Integrals threads:          16
    Memory (MB):             71525
    Schwarz Cutoff:          0E+00
    Fitting Condition:       1E-12

   => Auxiliary Basis Set <=

  Basis Set: (6-31G(D) AUX)
    Blend: CC-PVDZ-JKFIT
    Number of shells: 210
    Number of basis function: 655
    Number of Cartesian functions: 655
    Spherical Harmonics?: false
    Max angular momentum: 3


  -Total Gradient:
     Atom            X                  Y                   Z
    ------   -----------------  -----------------  -----------------
       1        0.000961702241    -0.000054153260     0.000093239746
       2       -0.000145913185     0.000134535228    -0.000017165744
       3       -0.000288819477     0.000003593310    -0.000225894521
       4       -0.000204664308     0.000029748219     0.000077546411
       5       -0.000009653468     0.000004266399     0.000017661113
       6        0.000023831905    -0.000013002569    -0.000034201858
       7       -0.000021473396     0.000018479987     0.000043083489
       8       -0.000033908409    -0.000028617262     0.000013536715
       9        0.000001780525    -0.000000201970     0.000001883986
      10        0.000001751775     0.000000439038     0.000000160706
      11       -0.000005981941     0.000000643982    -0.000006543354
      12       -0.000000857257    -0.000001556262     0.000001091682
      13       -0.000277462146    -0.000091265334     0.000037514507
      14       -0.000017421156    -0.000015206176     0.000003217441
      15        0.000017088296     0.000012296670    -0.000005130320


*** tstop() called on wr86 at Thu Dec  6 15:58:59 2018
Module time:
	user time   =      15.25 seconds =       0.25 minutes
	system time =       0.52 seconds =       0.01 minutes
	total time  =          1 seconds =       0.02 minutes
Total time:
	user time   =      96.47 seconds =       1.61 minutes
	system time =       3.50 seconds =       0.06 minutes
	total time  =          8 seconds =       0.13 minutes

  //>>>>>>>>>>>>>>>>>>>>>>>>>>>>>>>>>>>//
  //    Loading displacement 3 of 79   //
  //<<<<<<<<<<<<<<<<<<<<<<<<<<<<<<<<<<<//
gradient() will perform analytic gradient computation.

*** tstart() called on wr86
*** at Thu Dec  6 15:58:59 2018

   => Loading Basis Set <=

    Name: 6-31G(D)
    Role: ORBITAL
    Keyword: BASIS
    atoms 1, 4, 8, 13               entry C          line   111 file /usr/local/hpc1/software_molmod/psi4/psi4conda/share/psi4/basis/6-31g_d_.gbs 
    atoms 2-3, 5-7, 9-10, 12, 14-15 entry H          line    44 file /usr/local/hpc1/software_molmod/psi4/psi4conda/share/psi4/basis/6-31g_d_.gbs 
    atoms 11                        entry O          line   145 file /usr/local/hpc1/software_molmod/psi4/psi4conda/share/psi4/basis/6-31g_d_.gbs 


         ---------------------------------------------------------
                                   SCF
            by Justin Turney, Rob Parrish, Andy Simmonett
                             and Daniel Smith
                              RHF Reference
                       16 Threads,  95367 MiB Core
         ---------------------------------------------------------

  ==> Geometry <==

    Molecular point group: c1
    Full point group: C1

    Geometry (in Angstrom), charge = 0, multiplicity = 1:

       Center              X                  Y                   Z               Mass       
    ------------   -----------------  -----------------  -----------------  -----------------
         C           -1.287894020402    -0.792722752292    -0.327439259536    12.000000000000
         H           -0.941649887385    -1.818097603271    -0.221803438981     1.007825032070
         H           -1.993347618700    -0.796789085308    -1.153862863788     1.007825032070
         C           -2.026639899740    -0.370380535527     0.945145072335    12.000000000000
         H           -2.370665176820     0.657723668956     0.873733557208     1.007825032070
         H           -1.398468326229    -0.447685567068     1.826870445106     1.007825032070
         H           -2.896139802790    -0.998669546404     1.111430562974     1.007825032070
         C            1.051257349374     0.073067624932     0.271062549530    12.000000000000
         H            1.389001788232    -0.953869510768     0.407398928235     1.007825032070
         H            0.746008125580     0.449131776125     1.244664411112     1.007825032070
         O            2.083571540449     0.867047269919    -0.256373415411    15.994914619560
         H            2.813628840807     0.880720111097     0.345903915502     1.007825032070
         C           -0.109098747468     0.109015357361    -0.710088912584    12.000000000000
         H            0.274426272846    -0.190503427563    -1.680911826046     1.007825032070
         H           -0.443120085416     1.138210523008    -0.812097140555     1.007825032070

  Running in c1 symmetry.

  Rotational constants: A =      0.42469  B =      0.07754  C =      0.07166 [cm^-1]
  Rotational constants: A =  12731.92442  B =   2324.66816  C =   2148.18208 [MHz]
  Nuclear repulsion =  188.077057362565654

  Charge       = 0
  Multiplicity = 1
  Electrons    = 42
  Nalpha       = 21
  Nbeta        = 21

  ==> Algorithm <==

  SCF Algorithm Type is DF.
  DIIS enabled.
  MOM disabled.
  Fractional occupation disabled.
  Guess Type is SAD.
  Energy threshold   = 1.00e-08
  Density threshold  = 1.00e-08
  Integral threshold = 0.00e+00

  ==> Primary Basis <==

  Basis Set: 6-31G(D)
    Blend: 6-31G(D)
    Number of shells: 50
    Number of basis function: 95
    Number of Cartesian functions: 95
    Spherical Harmonics?: false
    Max angular momentum: 2

   => Loading Basis Set <=

    Name: (6-31G(D) AUX)
    Role: JKFIT
    Keyword: DF_BASIS_SCF
    atoms 1, 4, 8, 13               entry C          line   121 file /usr/local/hpc1/software_molmod/psi4/psi4conda/share/psi4/basis/cc-pvdz-jkfit.gbs 
    atoms 2-3, 5-7, 9-10, 12, 14-15 entry H          line    51 file /usr/local/hpc1/software_molmod/psi4/psi4conda/share/psi4/basis/cc-pvdz-jkfit.gbs 
    atoms 11                        entry O          line   221 file /usr/local/hpc1/software_molmod/psi4/psi4conda/share/psi4/basis/cc-pvdz-jkfit.gbs 

  ==> Pre-Iterations <==

   -------------------------------------------------------
    Irrep   Nso     Nmo     Nalpha   Nbeta   Ndocc  Nsocc
   -------------------------------------------------------
     A         95      95       0       0       0       0
   -------------------------------------------------------
    Total      95      95      21      21      21       0
   -------------------------------------------------------

  ==> Integral Setup <==

  ==> DiskDFJK: Density-Fitted J/K Matrices <==

    J tasked:                  Yes
    K tasked:                  Yes
    wK tasked:                  No
    OpenMP threads:             16
    Integrals threads:          16
    Memory (MB):             71525
    Algorithm:                Core
    Integral Cache:           NONE
    Schwarz Cutoff:          1E-12
    Fitting Condition:       1E-12

   => Auxiliary Basis Set <=

  Basis Set: (6-31G(D) AUX)
    Blend: CC-PVDZ-JKFIT
    Number of shells: 210
    Number of basis function: 655
    Number of Cartesian functions: 655
    Spherical Harmonics?: false
    Max angular momentum: 3

  Minimum eigenvalue in the overlap matrix is 4.1775027917E-03.
  Using Symmetric Orthogonalization.

  SCF Guess: Superposition of Atomic Densities via on-the-fly atomic UHF.

  ==> Iterations <==

                           Total Energy        Delta E     RMS |[F,P]|

   @DF-RHF iter   0:  -233.79264782742285   -2.33793e+02   1.38017e-01 
   @DF-RHF iter   1:  -231.97950400651010    1.81314e+00   1.73000e-02 
   @DF-RHF iter   2:  -232.11605394974140   -1.36550e-01   8.46564e-03 DIIS
   @DF-RHF iter   3:  -232.13974473912177   -2.36908e-02   1.87916e-03 DIIS
   @DF-RHF iter   4:  -232.14314564373868   -3.40090e-03   4.10723e-04 DIIS
   @DF-RHF iter   5:  -232.14331138589787   -1.65742e-04   1.40330e-04 DIIS
   @DF-RHF iter   6:  -232.14333336385641   -2.19780e-05   3.38511e-05 DIIS
   @DF-RHF iter   7:  -232.14333552423443   -2.16038e-06   9.69704e-06 DIIS
   @DF-RHF iter   8:  -232.14333570681168   -1.82577e-07   3.13267e-06 DIIS
   @DF-RHF iter   9:  -232.14333572008579   -1.32741e-08   6.11675e-07 DIIS
   @DF-RHF iter  10:  -232.14333572104906   -9.63269e-10   2.21287e-07 DIIS
   @DF-RHF iter  11:  -232.14333572111866   -6.96048e-11   7.21523e-08 DIIS
   @DF-RHF iter  12:  -232.14333572112301   -4.34852e-12   2.17758e-08 DIIS
   @DF-RHF iter  13:  -232.14333572112307   -5.68434e-14   4.61209e-09 DIIS

  ==> Post-Iterations <==

    Orbital Energies [Eh]
    ---------------------

    Doubly Occupied:                                                      

       1A    -20.551912     2A    -11.266932     3A    -11.218716  
       4A    -11.211280     5A    -11.211210     6A     -1.358646  
       7A     -1.069590     8A     -0.970929     9A     -0.869368  
      10A     -0.784770    11A     -0.694726    12A     -0.651430  
      13A     -0.617338    14A     -0.583556    15A     -0.556171  
      16A     -0.537707    17A     -0.507024    18A     -0.473709  
      19A     -0.473290    20A     -0.456366    21A     -0.433238  

    Virtual:                                                              

      22A      0.229312    23A      0.230299    24A      0.276963  
      25A      0.286701    26A      0.307023    27A      0.316857  
      28A      0.328968    29A      0.339491    30A      0.349320  
      31A      0.378448    32A      0.406729    33A      0.421692  
      34A      0.448260    35A      0.462559    36A      0.718426  
      37A      0.724461    38A      0.747025    39A      0.760287  
      40A      0.787811    41A      0.845159    42A      0.891414  
      43A      0.931028    44A      0.962275    45A      0.988452  
      46A      1.016069    47A      1.113799    48A      1.125639  
      49A      1.132902    50A      1.152048    51A      1.165368  
      52A      1.179804    53A      1.194708    54A      1.211177  
      55A      1.232860    56A      1.245189    57A      1.255174  
      58A      1.269389    59A      1.299206    60A      1.350044  
      61A      1.469533    62A      1.554279    63A      1.685469  
      64A      1.705874    65A      1.730449    66A      1.844956  
      67A      1.873013    68A      1.963610    69A      2.020191  
      70A      2.040398    71A      2.133185    72A      2.203092  
      73A      2.260545    74A      2.268119    75A      2.314480  
      76A      2.340568    77A      2.404130    78A      2.452191  
      79A      2.571892    80A      2.631950    81A      2.644892  
      82A      2.691673    83A      2.735147    84A      2.765793  
      85A      2.814703    86A      2.866675    87A      2.960574  
      88A      2.984216    89A      3.109832    90A      3.266050  
      91A      4.201313    92A      4.568709    93A      4.696448  
      94A      4.839766    95A      4.946981  

    Final Occupation by Irrep:
              A 
    DOCC [    21 ]

  Energy converged.

  @DF-RHF Final Energy:  -232.14333572112307

   => Energetics <=

    Nuclear Repulsion Energy =            188.0770573625656539
    One-Electron Energy =                -687.4449745735612396
    Two-Electron Energy =                 267.2245814898724916
    Total Energy =                       -232.1433357211230941



Properties will be evaluated at   0.000000,   0.000000,   0.000000 [a0]

Properties computed using the SCF density matrix

  Nuclear Dipole Moment: [e a0]
     X:    -4.5089      Y:    -1.9456      Z:     1.8187

  Electronic Dipole Moment: [e a0]
     X:     4.5139      Y:     1.6221      Z:    -1.2552

  Dipole Moment: [e a0]
     X:     0.0050      Y:    -0.3235      Z:     0.5635     Total:     0.6498

  Dipole Moment: [D]
     X:     0.0128      Y:    -0.8222      Z:     1.4323     Total:     1.6516


*** tstop() called on wr86 at Thu Dec  6 15:59:01 2018
Module time:
	user time   =      18.94 seconds =       0.32 minutes
	system time =       0.55 seconds =       0.01 minutes
	total time  =          2 seconds =       0.03 minutes
Total time:
	user time   =     115.54 seconds =       1.93 minutes
	system time =       4.05 seconds =       0.07 minutes
	total time  =         10 seconds =       0.17 minutes

*** tstart() called on wr86
*** at Thu Dec  6 15:59:01 2018


         ------------------------------------------------------------
                                   SCF GRAD                          
                          Rob Parrish, Justin Turney,                
                       Andy Simmonett, and Alex Sokolov              
         ------------------------------------------------------------

  ==> Geometry <==

    Molecular point group: c1
    Full point group: C1

    Geometry (in Angstrom), charge = 0, multiplicity = 1:

       Center              X                  Y                   Z               Mass       
    ------------   -----------------  -----------------  -----------------  -----------------
         C           -1.287894020402    -0.792722752292    -0.327439259536    12.000000000000
         H           -0.941649887385    -1.818097603271    -0.221803438981     1.007825032070
         H           -1.993347618700    -0.796789085308    -1.153862863788     1.007825032070
         C           -2.026639899740    -0.370380535527     0.945145072335    12.000000000000
         H           -2.370665176820     0.657723668956     0.873733557208     1.007825032070
         H           -1.398468326229    -0.447685567068     1.826870445106     1.007825032070
         H           -2.896139802790    -0.998669546404     1.111430562974     1.007825032070
         C            1.051257349374     0.073067624932     0.271062549530    12.000000000000
         H            1.389001788232    -0.953869510768     0.407398928235     1.007825032070
         H            0.746008125580     0.449131776125     1.244664411112     1.007825032070
         O            2.083571540449     0.867047269919    -0.256373415411    15.994914619560
         H            2.813628840807     0.880720111097     0.345903915502     1.007825032070
         C           -0.109098747468     0.109015357361    -0.710088912584    12.000000000000
         H            0.274426272846    -0.190503427563    -1.680911826046     1.007825032070
         H           -0.443120085416     1.138210523008    -0.812097140555     1.007825032070

  Nuclear repulsion =  188.077057362565654

  ==> Basis Set <==

  Basis Set: 6-31G(D)
    Blend: 6-31G(D)
    Number of shells: 50
    Number of basis function: 95
    Number of Cartesian functions: 95
    Spherical Harmonics?: false
    Max angular momentum: 2

  ==> DFJKGrad: Density-Fitted SCF Gradients <==

    Gradient:                    1
    J tasked:                  Yes
    K tasked:                  Yes
    wK tasked:                  No
    OpenMP threads:             16
    Integrals threads:          16
    Memory (MB):             71525
    Schwarz Cutoff:          0E+00
    Fitting Condition:       1E-12

   => Auxiliary Basis Set <=

  Basis Set: (6-31G(D) AUX)
    Blend: CC-PVDZ-JKFIT
    Number of shells: 210
    Number of basis function: 655
    Number of Cartesian functions: 655
    Spherical Harmonics?: false
    Max angular momentum: 3


  -Total Gradient:
     Atom            X                  Y                   Z
    ------   -----------------  -----------------  -----------------
       1        0.000169343201    -0.001110507087     0.000028885739
       2       -0.000164211115     0.000548313952    -0.000050449559
       3       -0.000034969158     0.000108953010    -0.000026252927
       4       -0.000052250087     0.000195028002     0.000064519996
       5       -0.000032654849     0.000016583426     0.000059532783
       6        0.000006134485    -0.000002946960    -0.000009608245
       7        0.000017177363    -0.000011972522    -0.000033686656
       8        0.000000011931    -0.000005801012     0.000009826623
       9       -0.000003150992    -0.000000149547    -0.000000432481
      10       -0.000000205762     0.000000284505    -0.000000698329
      11       -0.000005119317    -0.000000991737    -0.000002937874
      12       -0.000000858070    -0.000001461917    -0.000000450673
      13        0.000066035787     0.000241544074    -0.000027250033
      14       -0.000020122690    -0.000014973512     0.000005815688
      15        0.000054839272     0.000038097323    -0.000016814053


*** tstop() called on wr86 at Thu Dec  6 15:59:02 2018
Module time:
	user time   =      15.92 seconds =       0.27 minutes
	system time =       0.57 seconds =       0.01 minutes
	total time  =          1 seconds =       0.02 minutes
Total time:
	user time   =     131.48 seconds =       2.19 minutes
	system time =       4.62 seconds =       0.08 minutes
	total time  =         11 seconds =       0.18 minutes

  //>>>>>>>>>>>>>>>>>>>>>>>>>>>>>>>>>>>//
  //    Loading displacement 4 of 79   //
  //<<<<<<<<<<<<<<<<<<<<<<<<<<<<<<<<<<<//
gradient() will perform analytic gradient computation.

*** tstart() called on wr86
*** at Thu Dec  6 15:59:02 2018

   => Loading Basis Set <=

    Name: 6-31G(D)
    Role: ORBITAL
    Keyword: BASIS
    atoms 1, 4, 8, 13               entry C          line   111 file /usr/local/hpc1/software_molmod/psi4/psi4conda/share/psi4/basis/6-31g_d_.gbs 
    atoms 2-3, 5-7, 9-10, 12, 14-15 entry H          line    44 file /usr/local/hpc1/software_molmod/psi4/psi4conda/share/psi4/basis/6-31g_d_.gbs 
    atoms 11                        entry O          line   145 file /usr/local/hpc1/software_molmod/psi4/psi4conda/share/psi4/basis/6-31g_d_.gbs 


         ---------------------------------------------------------
                                   SCF
            by Justin Turney, Rob Parrish, Andy Simmonett
                             and Daniel Smith
                              RHF Reference
                       16 Threads,  95367 MiB Core
         ---------------------------------------------------------

  ==> Geometry <==

    Molecular point group: c1
    Full point group: C1

    Geometry (in Angstrom), charge = 0, multiplicity = 1:

       Center              X                  Y                   Z               Mass       
    ------------   -----------------  -----------------  -----------------  -----------------
         C           -1.287894020402    -0.791471033040    -0.327333216370    12.000000000000
         H           -0.941282056505    -1.818622069315    -0.221406131921     1.007825032070
         H           -1.993087845690    -0.797738723486    -1.153809346380     1.007825032070
         C           -2.026615303177    -0.370794438291     0.945085941657    12.000000000000
         H           -2.370815583123     0.657230896262     0.873382874500     1.007825032070
         H           -1.398497520918    -0.447761681388     1.826879183724     1.007825032070
         H           -2.896017607748    -0.999193153464     1.111467174266     1.007825032070
         C            1.051255539476     0.073020095120     0.271123976446    12.000000000000
         H            1.389169817280    -0.953822520945     0.407751124212     1.007825032070
         H            0.745865943501     0.449281856919     1.244605460910     1.007825032070
         O            2.083470631187     0.867044831883    -0.256438043333    15.994914619560
         H            2.813479514199     0.881001238021     0.345891468790     1.007825032070
         C           -0.109031902390     0.108510961315    -0.710125305448    12.000000000000
         H            0.274619840346    -0.191190979554    -1.680841618264     1.007825032070
         H           -0.443226097805     1.137621118398    -0.812424602171     1.007825032070

  Running in c1 symmetry.

  Rotational constants: A =      0.42486  B =      0.07755  C =      0.07166 [cm^-1]
  Rotational constants: A =  12737.09496  B =   2324.93255  C =   2148.34594 [MHz]
  Nuclear repulsion =  188.090222795351025

  Charge       = 0
  Multiplicity = 1
  Electrons    = 42
  Nalpha       = 21
  Nbeta        = 21

  ==> Algorithm <==

  SCF Algorithm Type is DF.
  DIIS enabled.
  MOM disabled.
  Fractional occupation disabled.
  Guess Type is SAD.
  Energy threshold   = 1.00e-08
  Density threshold  = 1.00e-08
  Integral threshold = 0.00e+00

  ==> Primary Basis <==

  Basis Set: 6-31G(D)
    Blend: 6-31G(D)
    Number of shells: 50
    Number of basis function: 95
    Number of Cartesian functions: 95
    Spherical Harmonics?: false
    Max angular momentum: 2

   => Loading Basis Set <=

    Name: (6-31G(D) AUX)
    Role: JKFIT
    Keyword: DF_BASIS_SCF
    atoms 1, 4, 8, 13               entry C          line   121 file /usr/local/hpc1/software_molmod/psi4/psi4conda/share/psi4/basis/cc-pvdz-jkfit.gbs 
    atoms 2-3, 5-7, 9-10, 12, 14-15 entry H          line    51 file /usr/local/hpc1/software_molmod/psi4/psi4conda/share/psi4/basis/cc-pvdz-jkfit.gbs 
    atoms 11                        entry O          line   221 file /usr/local/hpc1/software_molmod/psi4/psi4conda/share/psi4/basis/cc-pvdz-jkfit.gbs 

  ==> Pre-Iterations <==

   -------------------------------------------------------
    Irrep   Nso     Nmo     Nalpha   Nbeta   Ndocc  Nsocc
   -------------------------------------------------------
     A         95      95       0       0       0       0
   -------------------------------------------------------
    Total      95      95      21      21      21       0
   -------------------------------------------------------

  ==> Integral Setup <==

  ==> DiskDFJK: Density-Fitted J/K Matrices <==

    J tasked:                  Yes
    K tasked:                  Yes
    wK tasked:                  No
    OpenMP threads:             16
    Integrals threads:          16
    Memory (MB):             71525
    Algorithm:                Core
    Integral Cache:           NONE
    Schwarz Cutoff:          1E-12
    Fitting Condition:       1E-12

   => Auxiliary Basis Set <=

  Basis Set: (6-31G(D) AUX)
    Blend: CC-PVDZ-JKFIT
    Number of shells: 210
    Number of basis function: 655
    Number of Cartesian functions: 655
    Spherical Harmonics?: false
    Max angular momentum: 3

  Minimum eigenvalue in the overlap matrix is 4.1744888067E-03.
  Using Symmetric Orthogonalization.

  SCF Guess: Superposition of Atomic Densities via on-the-fly atomic UHF.

  ==> Iterations <==

                           Total Energy        Delta E     RMS |[F,P]|

   @DF-RHF iter   0:  -233.94802478532444   -2.33948e+02   1.48221e-01 
   @DF-RHF iter   1:  -232.01182835296464    1.93620e+00   1.81402e-02 
   @DF-RHF iter   2:  -232.12397774356623   -1.12149e-01   5.33981e-03 DIIS
   @DF-RHF iter   3:  -232.14003835274661   -1.60606e-02   1.93358e-03 DIIS
   @DF-RHF iter   4:  -232.14320723840839   -3.16889e-03   2.68275e-04 DIIS
   @DF-RHF iter   5:  -232.14332401018683   -1.16772e-04   1.16347e-04 DIIS
   @DF-RHF iter   6:  -232.14333437416519   -1.03640e-05   2.99131e-05 DIIS
   @DF-RHF iter   7:  -232.14333557308356   -1.19892e-06   7.72068e-06 DIIS
   @DF-RHF iter   8:  -232.14333571410873   -1.41025e-07   2.09771e-06 DIIS
   @DF-RHF iter   9:  -232.14333572283255   -8.72382e-09   4.53486e-07 DIIS
   @DF-RHF iter  10:  -232.14333572315053   -3.17982e-10   1.22867e-07 DIIS
   @DF-RHF iter  11:  -232.14333572316914   -1.86162e-11   3.28218e-08 DIIS
   @DF-RHF iter  12:  -232.14333572317076   -1.62004e-12   7.95205e-09 DIIS

  ==> Post-Iterations <==

    Orbital Energies [Eh]
    ---------------------

    Doubly Occupied:                                                      

       1A    -20.551930     2A    -11.266954     3A    -11.218788  
       4A    -11.211277     5A    -11.211196     6A     -1.358663  
       7A     -1.069754     8A     -0.971003     9A     -0.869427  
      10A     -0.784615    11A     -0.694754    12A     -0.651470  
      13A     -0.617280    14A     -0.583679    15A     -0.556228  
      16A     -0.537720    17A     -0.507041    18A     -0.473725  
      19A     -0.473219    20A     -0.456336    21A     -0.433257  

    Virtual:                                                              

      22A      0.229273    23A      0.230295    24A      0.276920  
      25A      0.286612    26A      0.307021    27A      0.316806  
      28A      0.328975    29A      0.339389    30A      0.349283  
      31A      0.378453    32A      0.406776    33A      0.421715  
      34A      0.448558    35A      0.462710    36A      0.718351  
      37A      0.724354    38A      0.747219    39A      0.760285  
      40A      0.787733    41A      0.845148    42A      0.891518  
      43A      0.931432    44A      0.962343    45A      0.988863  
      46A      1.015961    47A      1.113731    48A      1.125639  
      49A      1.132873    50A      1.151825    51A      1.164818  
      52A      1.179796    53A      1.194701    54A      1.210988  
      55A      1.232753    56A      1.244821    57A      1.255012  
      58A      1.269380    59A      1.299223    60A      1.349970  
      61A      1.469591    62A      1.554384    63A      1.685616  
      64A      1.705868    65A      1.730367    66A      1.844884  
      67A      1.872856    68A      1.963734    69A      2.020143  
      70A      2.040391    71A      2.133298    72A      2.203154  
      73A      2.260917    74A      2.268368    75A      2.314431  
      76A      2.341132    77A      2.404164    78A      2.452183  
      79A      2.571838    80A      2.631777    81A      2.644484  
      82A      2.691381    83A      2.735376    84A      2.765978  
      85A      2.814816    86A      2.866700    87A      2.961169  
      88A      2.984763    89A      3.110149    90A      3.266103  
      91A      4.201349    92A      4.568875    93A      4.696476  
      94A      4.839726    95A      4.947056  

    Final Occupation by Irrep:
              A 
    DOCC [    21 ]

  Energy converged.

  @DF-RHF Final Energy:  -232.14333572317076

   => Energetics <=

    Nuclear Repulsion Energy =            188.0902227953510248
    One-Electron Energy =                -687.4704823367907238
    Two-Electron Energy =                 267.2369238182689628
    Total Energy =                       -232.1433357231707646



Properties will be evaluated at   0.000000,   0.000000,   0.000000 [a0]

Properties computed using the SCF density matrix

  Nuclear Dipole Moment: [e a0]
     X:    -4.5084      Y:    -1.9488      Z:     1.8189

  Electronic Dipole Moment: [e a0]
     X:     4.5134      Y:     1.6261      Z:    -1.2552

  Dipole Moment: [e a0]
     X:     0.0050      Y:    -0.3227      Z:     0.5636     Total:     0.6495

  Dipole Moment: [D]
     X:     0.0126      Y:    -0.8202      Z:     1.4326     Total:     1.6508


*** tstop() called on wr86 at Thu Dec  6 15:59:03 2018
Module time:
	user time   =      17.45 seconds =       0.29 minutes
	system time =       0.47 seconds =       0.01 minutes
	total time  =          1 seconds =       0.02 minutes
Total time:
	user time   =     149.05 seconds =       2.48 minutes
	system time =       5.09 seconds =       0.08 minutes
	total time  =         12 seconds =       0.20 minutes

*** tstart() called on wr86
*** at Thu Dec  6 15:59:03 2018


         ------------------------------------------------------------
                                   SCF GRAD                          
                          Rob Parrish, Justin Turney,                
                       Andy Simmonett, and Alex Sokolov              
         ------------------------------------------------------------

  ==> Geometry <==

    Molecular point group: c1
    Full point group: C1

    Geometry (in Angstrom), charge = 0, multiplicity = 1:

       Center              X                  Y                   Z               Mass       
    ------------   -----------------  -----------------  -----------------  -----------------
         C           -1.287894020402    -0.791471033040    -0.327333216370    12.000000000000
         H           -0.941282056505    -1.818622069315    -0.221406131921     1.007825032070
         H           -1.993087845690    -0.797738723486    -1.153809346380     1.007825032070
         C           -2.026615303177    -0.370794438291     0.945085941657    12.000000000000
         H           -2.370815583123     0.657230896262     0.873382874500     1.007825032070
         H           -1.398497520918    -0.447761681388     1.826879183724     1.007825032070
         H           -2.896017607748    -0.999193153464     1.111467174266     1.007825032070
         C            1.051255539476     0.073020095120     0.271123976446    12.000000000000
         H            1.389169817280    -0.953822520945     0.407751124212     1.007825032070
         H            0.745865943501     0.449281856919     1.244605460910     1.007825032070
         O            2.083470631187     0.867044831883    -0.256438043333    15.994914619560
         H            2.813479514199     0.881001238021     0.345891468790     1.007825032070
         C           -0.109031902390     0.108510961315    -0.710125305448    12.000000000000
         H            0.274619840346    -0.191190979554    -1.680841618264     1.007825032070
         H           -0.443226097805     1.137621118398    -0.812424602171     1.007825032070

  Nuclear repulsion =  188.090222795351025

  ==> Basis Set <==

  Basis Set: 6-31G(D)
    Blend: 6-31G(D)
    Number of shells: 50
    Number of basis function: 95
    Number of Cartesian functions: 95
    Spherical Harmonics?: false
    Max angular momentum: 2

  ==> DFJKGrad: Density-Fitted SCF Gradients <==

    Gradient:                    1
    J tasked:                  Yes
    K tasked:                  Yes
    wK tasked:                  No
    OpenMP threads:             16
    Integrals threads:          16
    Memory (MB):             71525
    Schwarz Cutoff:          0E+00
    Fitting Condition:       1E-12

   => Auxiliary Basis Set <=

  Basis Set: (6-31G(D) AUX)
    Blend: CC-PVDZ-JKFIT
    Number of shells: 210
    Number of basis function: 655
    Number of Cartesian functions: 655
    Spherical Harmonics?: false
    Max angular momentum: 3


  -Total Gradient:
     Atom            X                  Y                   Z
    ------   -----------------  -----------------  -----------------
       1       -0.000167444049     0.001107285002    -0.000028030030
       2        0.000163197695    -0.000544851249     0.000050230842
       3        0.000034241974    -0.000108885929     0.000026019322
       4        0.000052434648    -0.000194925077    -0.000065021952
       5        0.000032969214    -0.000016615698    -0.000059577524
       6       -0.000006093285     0.000002786081     0.000009592770
       7       -0.000017269919     0.000011999122     0.000033483917
       8        0.000000259628     0.000004204948    -0.000010842502
       9        0.000002719226    -0.000000162514     0.000000843198
      10       -0.000000067683    -0.000000237029     0.000000289371
      11        0.000005879580     0.000002022036     0.000003296346
      12        0.000001158754     0.000001841774     0.000000252362
      13       -0.000067353575    -0.000241262327     0.000028088058
      14        0.000020466948     0.000014824314    -0.000005131140
      15       -0.000055099158    -0.000038023457     0.000016506964


*** tstop() called on wr86 at Thu Dec  6 15:59:04 2018
Module time:
	user time   =      15.29 seconds =       0.25 minutes
	system time =       0.66 seconds =       0.01 minutes
	total time  =          1 seconds =       0.02 minutes
Total time:
	user time   =     164.36 seconds =       2.74 minutes
	system time =       5.75 seconds =       0.10 minutes
	total time  =         13 seconds =       0.22 minutes

  //>>>>>>>>>>>>>>>>>>>>>>>>>>>>>>>>>>>//
  //    Loading displacement 5 of 79   //
  //<<<<<<<<<<<<<<<<<<<<<<<<<<<<<<<<<<<//
gradient() will perform analytic gradient computation.

*** tstart() called on wr86
*** at Thu Dec  6 15:59:04 2018

   => Loading Basis Set <=

    Name: 6-31G(D)
    Role: ORBITAL
    Keyword: BASIS
    atoms 1, 4, 8, 13               entry C          line   111 file /usr/local/hpc1/software_molmod/psi4/psi4conda/share/psi4/basis/6-31g_d_.gbs 
    atoms 2-3, 5-7, 9-10, 12, 14-15 entry H          line    44 file /usr/local/hpc1/software_molmod/psi4/psi4conda/share/psi4/basis/6-31g_d_.gbs 
    atoms 11                        entry O          line   145 file /usr/local/hpc1/software_molmod/psi4/psi4conda/share/psi4/basis/6-31g_d_.gbs 


         ---------------------------------------------------------
                                   SCF
            by Justin Turney, Rob Parrish, Andy Simmonett
                             and Daniel Smith
                              RHF Reference
                       16 Threads,  95367 MiB Core
         ---------------------------------------------------------

  ==> Geometry <==

    Molecular point group: c1
    Full point group: C1

    Geometry (in Angstrom), charge = 0, multiplicity = 1:

       Center              X                  Y                   Z               Mass       
    ------------   -----------------  -----------------  -----------------  -----------------
         C           -1.287894020402    -0.792096892666    -0.328019026282    12.000000000000
         H           -0.941436858894    -1.818418152558    -0.221200552967     1.007825032070
         H           -1.993239086803    -0.797457583396    -1.153523200671     1.007825032070
         C           -2.026588486299    -0.370523228114     0.945376940148    12.000000000000
         H           -2.370723660547     0.657526014310     0.873704270130     1.007825032070
[...]
      8   C               -0.05  0.10  0.06    0.01 -0.08  0.02   -0.04  0.03  0.06   
      9   H                0.25  0.15 -0.33    0.01 -0.06  0.24    0.49  0.20 -0.06   
     10   H               -0.01 -0.31  0.24    0.48  0.25  0.04   -0.13 -0.23  0.14   
     11   O                0.02 -0.03 -0.03   -0.00  0.05 -0.03    0.02 -0.01 -0.04   
     12   H               -0.08 -0.08  0.09   -0.32 -0.36  0.38   -0.17 -0.20  0.19   
     13   C                0.03 -0.14 -0.05   -0.04  0.00 -0.06   -0.03  0.03 -0.03   
     14   H                0.03  0.24 -0.16    0.31  0.14  0.04   -0.21 -0.09 -0.06   
     15   H               -0.09 -0.13  0.31   -0.20 -0.05 -0.07    0.37  0.17  0.05   

  Vibration                       25                  26                  27          
  Freq [cm^-1]                1427.3068           1446.6142           1498.3895       
  Irrep                           A                   A                   A           
  Reduced mass [u]              1.2000              1.0947              1.3276        
  Force const [mDyne/A]         1.4404              1.3498              1.7562        
  Turning point v=0 [a0]        0.2651              0.2757              0.2460        
  RMS dev v=0 [a0 u^1/2]        0.2054              0.2040              0.2004        
  Char temp [K]               2053.5736           2081.3526           2155.8455       
  ----------------------------------------------------------------------------------
      1   C                0.02  0.00  0.03   -0.01 -0.02  0.00   -0.01 -0.01  0.06   
      2   H                0.38  0.08 -0.37   -0.05 -0.04 -0.01   -0.04 -0.02  0.01   
      3   H               -0.37 -0.03  0.36    0.15 -0.01 -0.14    0.40  0.17 -0.29   
      4   C               -0.05  0.04 -0.04    0.01  0.01  0.01    0.00  0.00  0.03   
      5   H               -0.01  0.06  0.17   -0.03 -0.01 -0.02    0.05 -0.00 -0.15   
      6   H                0.12 -0.10 -0.18   -0.03 -0.01  0.05    0.07 -0.02 -0.02   
      7   H                0.04 -0.06  0.07    0.01 -0.02 -0.06    0.03 -0.06 -0.13   
      8   C                0.00  0.03 -0.04   -0.02  0.03  0.04   -0.02  0.01 -0.04   
      9   H               -0.30 -0.08 -0.10   -0.45 -0.14 -0.11    0.19  0.09  0.03   
     10   H                0.12  0.09 -0.04    0.49  0.11  0.16    0.18  0.07  0.01   
     11   O               -0.01 -0.01  0.04   -0.01  0.02 -0.00    0.00 -0.02  0.03   
     12   H                0.17  0.20 -0.19   -0.06 -0.05  0.07    0.15  0.16 -0.16   
     13   C               -0.01 -0.07  0.02    0.03 -0.03 -0.04   -0.13 -0.04 -0.05   
     14   H                0.20  0.09  0.05   -0.44 -0.06 -0.22    0.47  0.22  0.10   
     15   H                0.10 -0.03  0.16    0.35  0.10  0.20    0.42  0.16  0.07   

  Vibration                       28                  29                  30          
  Freq [cm^-1]                1520.0930           1569.2354           1616.1265       
  Irrep                           A                   A                   A           
  Reduced mass [u]              1.4597              1.2793              1.4077        
  Force const [mDyne/A]         1.9872              1.8560              2.1662        
  Turning point v=0 [a0]        0.2329              0.2449              0.2301        
  RMS dev v=0 [a0 u^1/2]        0.1990              0.1959              0.1930        
  Char temp [K]               2187.0721           2257.7769           2325.2427       
  ----------------------------------------------------------------------------------
      1   C               -0.14 -0.03  0.10   -0.04 -0.01  0.04   -0.01 -0.01 -0.01   
      2   H                0.51  0.14 -0.41    0.14  0.05 -0.06    0.05  0.02  0.03   
      3   H                0.31  0.04 -0.29    0.13  0.09 -0.10   -0.08  0.01  0.05   
      4   C                0.02  0.05  0.02    0.08 -0.03 -0.11    0.00 -0.00  0.01   
      5   H               -0.07 -0.01 -0.15   -0.29 -0.10  0.49   -0.10 -0.04 -0.01   
      6   H                0.07 -0.17 -0.05   -0.42  0.15  0.28    0.10  0.01 -0.06   
      7   H                0.10 -0.11 -0.22   -0.11  0.34  0.40   -0.08  0.08 -0.10   
      8   C                0.01 -0.02  0.02   -0.00 -0.00 -0.01   -0.14 -0.03 -0.06   
      9   H               -0.04 -0.04  0.04    0.01  0.00  0.01    0.48  0.20  0.09   
     10   H               -0.06 -0.03  0.00    0.06  0.02  0.01    0.53  0.18  0.06   
     11   O               -0.00  0.01 -0.02   -0.00 -0.00  0.00    0.01 -0.02  0.04   
     12   H               -0.08 -0.08  0.08    0.01  0.01 -0.01    0.18  0.19 -0.18   
     13   C                0.08  0.01 -0.02   -0.01 -0.01 -0.02    0.08  0.04 -0.01   
     14   H                0.02  0.07 -0.06    0.11  0.02  0.02   -0.12 -0.31  0.04   
     15   H               -0.36 -0.13 -0.06   -0.01 -0.00  0.06   -0.24 -0.05  0.21   

  Vibration                       31                  32                  33          
  Freq [cm^-1]                1636.2121           1640.9143           1650.5606       
  Irrep                           A                   A                   A           
  Reduced mass [u]              1.0684              1.1109              1.0590        
  Force const [mDyne/A]         1.6852              1.7623              1.6998        
  Turning point v=0 [a0]        0.2624              0.2570              0.2625        
  RMS dev v=0 [a0 u^1/2]        0.1918              0.1915              0.1910        
  Char temp [K]               2354.1414           2360.9067           2374.7856       
  ----------------------------------------------------------------------------------
      1   C               -0.01 -0.04 -0.04   -0.02  0.00  0.00   -0.01  0.00 -0.01   
      2   H                0.31  0.13  0.45    0.01  0.01 -0.05    0.03  0.03  0.10   
      3   H               -0.13  0.53  0.08    0.01 -0.07 -0.02    0.01  0.07 -0.04   
      4   C                0.01  0.02  0.00   -0.03 -0.01 -0.03   -0.02  0.03 -0.02   
      5   H               -0.16 -0.06 -0.23    0.45  0.17  0.19    0.33  0.12 -0.16   
      6   H               -0.05 -0.34  0.01   -0.21  0.24  0.14   -0.31 -0.22  0.19   
      7   H                0.01  0.04  0.19    0.23 -0.32  0.06    0.32 -0.35  0.33   
      8   C               -0.01 -0.00 -0.01   -0.05 -0.01 -0.03    0.01  0.00  0.01   
      9   H                0.00  0.01  0.05    0.12  0.07  0.12   -0.01 -0.01 -0.06   
     10   H                0.06 -0.02  0.03    0.18 -0.03  0.05   -0.02  0.06 -0.03   
     11   O                0.00  0.00  0.00    0.00 -0.00  0.01   -0.00 -0.00  0.00   
     12   H                0.01  0.01 -0.01    0.05  0.06 -0.06   -0.01 -0.01  0.01   
     13   C                0.01 -0.02  0.02    0.03 -0.02  0.05   -0.00  0.02 -0.04   
     14   H               -0.09  0.22 -0.10   -0.16  0.36 -0.15    0.11 -0.35  0.13   
     15   H                0.07 -0.02 -0.24    0.04 -0.05 -0.41   -0.11  0.03  0.38   

  Vibration                       34                  35                  36          
  Freq [cm^-1]                1654.7563           1684.3002           3170.2593       
  Irrep                           A                   A                   A           
  Reduced mass [u]              1.0883              1.0925              1.0632        
  Force const [mDyne/A]         1.7558              1.8260              6.2957        
  Turning point v=0 [a0]        0.2586              0.2558              0.1890        
  RMS dev v=0 [a0 u^1/2]        0.1907              0.1891              0.1378        
  Char temp [K]               2380.8222           2423.3293           4561.2903       
  ----------------------------------------------------------------------------------
      1   C               -0.03 -0.05 -0.02    0.00  0.00 -0.00   -0.00  0.01  0.00   
      2   H                0.28  0.09  0.28   -0.03 -0.01 -0.01    0.05 -0.13  0.01   
      3   H               -0.04  0.41 -0.00   -0.01 -0.03  0.00   -0.03  0.01 -0.04   
      4   C               -0.02 -0.04  0.01    0.00  0.00  0.00   -0.00 -0.00 -0.00   
      5   H                0.23  0.08  0.33   -0.02 -0.01 -0.03   -0.01  0.02 -0.00   
      6   H                0.13  0.51 -0.05   -0.00 -0.04 -0.00    0.02 -0.00  0.03   
      7   H               -0.05 -0.06 -0.34   -0.00  0.01  0.02   -0.00 -0.00 -0.00   
      8   C                0.02  0.01  0.01    0.00  0.05 -0.07    0.02 -0.06  0.04   
      9   H               -0.08 -0.03 -0.01   -0.20  0.05  0.66   -0.29  0.85 -0.09   
     10   H               -0.08 -0.04 -0.00    0.10 -0.64  0.25    0.12 -0.16 -0.34   
     11   O               -0.00  0.00 -0.01    0.00  0.00 -0.01   -0.00 -0.00  0.00   
     12   H               -0.03 -0.03  0.03    0.00  0.00 -0.01   -0.00 -0.00  0.00   
     13   C               -0.00  0.01 -0.03   -0.00  0.01 -0.01   -0.00  0.00 -0.00   
     14   H                0.05 -0.17  0.05    0.04 -0.09  0.04    0.00  0.00 -0.00   
     15   H               -0.02  0.02  0.19   -0.02  0.01  0.10    0.02 -0.06  0.01   

  Vibration                       37                  38                  39          
  Freq [cm^-1]                3191.4405           3198.8847           3205.4206       
  Irrep                           A                   A                   A           
  Reduced mass [u]              1.0634              1.0581              1.0761        
  Force const [mDyne/A]         6.3813              6.3795              6.5142        
  Turning point v=0 [a0]        0.1884              0.1886              0.1868        
  RMS dev v=0 [a0 u^1/2]        0.1373              0.1372              0.1370        
  Char temp [K]               4591.7654           4602.4759           4611.8795       
  ----------------------------------------------------------------------------------
      1   C               -0.00 -0.06 -0.02    0.00  0.01  0.01    0.01  0.00  0.01   
      2   H               -0.27  0.78 -0.09    0.05 -0.15  0.02    0.01 -0.02  0.00   
      3   H                0.29 -0.01  0.33   -0.06  0.00 -0.07   -0.09  0.00 -0.11   
      4   C                0.01  0.01 -0.01    0.02 -0.02 -0.03    0.02 -0.01 -0.01   
      5   H               -0.02  0.07 -0.01   -0.16  0.50 -0.05   -0.10  0.31 -0.03   
      6   H                0.09 -0.01  0.11    0.28 -0.04  0.38    0.10 -0.01  0.14   
      7   H               -0.17 -0.13  0.02   -0.32 -0.23  0.05   -0.19 -0.14  0.03   
      8   C                0.00 -0.00  0.01   -0.02  0.03  0.03    0.02 -0.04 -0.05   
      9   H               -0.03  0.10 -0.01    0.08 -0.23  0.03   -0.07  0.19 -0.03   
     10   H                0.02 -0.03 -0.08    0.13 -0.16 -0.41   -0.18  0.23  0.57   
     11   O               -0.00 -0.00 -0.00   -0.00 -0.00 -0.00    0.00  0.00  0.00   
     12   H               -0.00 -0.00  0.00   -0.00 -0.00  0.00    0.00  0.00 -0.00   
     13   C               -0.00  0.01  0.01    0.01 -0.01 -0.01   -0.01  0.04 -0.02   
     14   H                0.04 -0.04 -0.12   -0.06  0.05  0.15   -0.06  0.06  0.15   
     15   H                0.02 -0.06  0.01   -0.01  0.04 -0.01    0.17 -0.52  0.04   

  Vibration                       40                  41                  42          
  Freq [cm^-1]                3207.8828           3227.5877           3252.2268       
  Irrep                           A                   A                   A           
  Reduced mass [u]              1.0736              1.0914              1.1052        
  Force const [mDyne/A]         6.5092              6.6989              6.8874        
  Turning point v=0 [a0]        0.1870              0.1849              0.1830        
  RMS dev v=0 [a0 u^1/2]        0.1370              0.1366              0.1361        
  Char temp [K]               4615.4220           4643.7730           4679.2231       
  ----------------------------------------------------------------------------------
      1   C               -0.02  0.02 -0.02   -0.05  0.02 -0.05    0.00 -0.01  0.00   
      2   H                0.09 -0.26  0.02    0.10 -0.30  0.03   -0.03  0.10 -0.01   
      3   H                0.21 -0.00  0.25    0.50  0.00  0.58   -0.00 -0.00  0.00   
      4   C                0.02 -0.01 -0.01    0.02 -0.01  0.02    0.01  0.03 -0.01   
      5   H               -0.09  0.27 -0.02   -0.03  0.10 -0.01    0.06 -0.18  0.02   
      6   H                0.04 -0.01  0.05   -0.18  0.02 -0.24    0.03  0.00  0.03   
      7   H               -0.16 -0.12  0.03    0.02  0.01  0.00   -0.21 -0.15  0.04   
      8   C                0.01 -0.02 -0.02   -0.00  0.01  0.01    0.01 -0.02 -0.02   
      9   H               -0.05  0.14 -0.02    0.02 -0.05  0.01   -0.05  0.15 -0.02   
     10   H               -0.10  0.13  0.32    0.03 -0.04 -0.09   -0.06  0.08  0.21   
     11   O                0.00  0.00  0.00   -0.00 -0.00  0.00   -0.00  0.00  0.00   
     12   H                0.00  0.00 -0.00   -0.00 -0.00  0.00   -0.00  0.00  0.00   
     13   C               -0.00 -0.03  0.04    0.00  0.01 -0.03    0.03 -0.06 -0.05   
     14   H                0.19 -0.15 -0.46   -0.13  0.10  0.32   -0.24  0.19  0.63   
     15   H               -0.16  0.49 -0.04    0.08 -0.25  0.02   -0.17  0.52 -0.06   

  Vibration                       43                  44                  45          
  Freq [cm^-1]                3261.9613           3266.8835           4115.2209       
  Irrep                           A                   A                   A           
  Reduced mass [u]              1.1028              1.1024              1.0669        
  Force const [mDyne/A]         6.9136              6.9320             10.6458        
  Turning point v=0 [a0]        0.1829              0.1828              0.1656        
  RMS dev v=0 [a0 u^1/2]        0.1358              0.1357              0.1209        
  Char temp [K]               4693.2288           4700.3108           5920.8776       
  ----------------------------------------------------------------------------------
      1   C                0.01 -0.02  0.01   -0.02  0.01 -0.02    0.00  0.00 -0.00   
      2   H               -0.07  0.20 -0.02    0.04 -0.12  0.01    0.00 -0.00 -0.00   
      3   H               -0.04 -0.00 -0.04    0.17  0.00  0.20    0.00 -0.00  0.00   
      4   C               -0.02 -0.08  0.02   -0.07  0.01 -0.05   -0.00 -0.00 -0.00   
      5   H               -0.21  0.60 -0.05    0.08 -0.28  0.01   -0.00 -0.00  0.00   
      6   H               -0.06 -0.01 -0.07    0.46 -0.06  0.64    0.00 -0.00  0.00   
      7   H                0.54  0.38 -0.09    0.34  0.26 -0.07    0.00  0.00  0.00   
      8   C                0.00 -0.01 -0.00    0.00 -0.00 -0.01    0.00  0.00 -0.00   
      9   H               -0.02  0.06 -0.01   -0.00  0.01 -0.00    0.00  0.00 -0.00   
     10   H               -0.01  0.02  0.05   -0.03  0.04  0.10    0.00  0.00  0.00   
     11   O               -0.00  0.00  0.00    0.00  0.00  0.00   -0.05 -0.00 -0.04   
     12   H               -0.00 -0.00 -0.00    0.00  0.00 -0.00    0.77  0.02  0.63   
     13   C                0.01 -0.02 -0.01    0.00  0.00 -0.00    0.00 -0.00  0.00   
     14   H               -0.07  0.05  0.17   -0.01  0.01  0.04    0.00  0.00  0.00   
     15   H               -0.06  0.20 -0.02    0.01 -0.03  0.00    0.00  0.00  0.00   

  ==> Thermochemistry Components <==

  Entropy, S
    Electronic S            0.000 [cal/(mol K)]        0.000 [J/(mol K)]       0.00000000 [mEh/K] (multiplicity = 1)
    Translational S        38.823 [cal/(mol K)]      162.437 [J/(mol K)]       0.06186912 [mEh/K] (mol. weight = 74.0732 [u], P = 101325.00 [Pa])
    Rotational S           26.027 [cal/(mol K)]      108.899 [J/(mol K)]       0.04147743 [mEh/K] (symmetry no. = 1)
    Vibrational S          13.725 [cal/(mol K)]       57.426 [J/(mol K)]       0.02187244 [mEh/K]
  Total S                  78.576 [cal/(mol K)]      328.762 [J/(mol K)]       0.12521899 [mEh/K]
  Correction S              0.000 [cal/(mol K)]        0.000 [J/(mol K)]       0.00000000 [mEh/K]

  Constant volume heat capacity, Cv
    Electronic Cv           0.000 [cal/(mol K)]        0.000 [J/(mol K)]       0.00000000 [mEh/K]
    Translational Cv        2.981 [cal/(mol K)]       12.472 [J/(mol K)]       0.00475022 [mEh/K]
    Rotational Cv           2.981 [cal/(mol K)]       12.472 [J/(mol K)]       0.00475022 [mEh/K]
    Vibrational Cv         15.701 [cal/(mol K)]       65.693 [J/(mol K)]       0.02502129 [mEh/K]
  Total Cv                 21.663 [cal/(mol K)]       90.637 [J/(mol K)]       0.03452173 [mEh/K]
  Correction Cv             0.000 [cal/(mol K)]        0.000 [J/(mol K)]       0.00000000 [mEh/K]

  Constant pressure heat capacity, Cp
    Electronic Cp           0.000 [cal/(mol K)]        0.000 [J/(mol K)]       0.00000000 [mEh/K]
    Translational Cp        4.968 [cal/(mol K)]       20.786 [J/(mol K)]       0.00791704 [mEh/K]
    Rotational Cp           2.981 [cal/(mol K)]       12.472 [J/(mol K)]       0.00475022 [mEh/K]
    Vibrational Cp         15.701 [cal/(mol K)]       65.693 [J/(mol K)]       0.02502129 [mEh/K]
  Total Cp                 23.650 [cal/(mol K)]       98.951 [J/(mol K)]       0.03768854 [mEh/K]
  Correction Cp             0.000 [cal/(mol K)]        0.000 [J/(mol K)]       0.00000000 [mEh/K]

  ==> Thermochemistry Energy Analysis <==

  Raw electronic energy, E0
  Total E0, Electronic energy at well bottom at 0 [K]                 -232.14333671 [Eh]

  Zero-point energy, ZPE_vib = Sum_i nu_i / 2
    Electronic ZPE          0.000 [kcal/mol]        0.000 [kJ/mol]       0.00000000 [Eh]
    Translational ZPE       0.000 [kcal/mol]        0.000 [kJ/mol]       0.00000000 [Eh]
    Rotational ZPE          0.000 [kcal/mol]        0.000 [kJ/mol]       0.00000000 [Eh]
    Vibrational ZPE        92.462 [kcal/mol]      386.860 [kJ/mol]       0.14734728 [Eh]       32338.986 [cm^-1]
  Correction ZPE           92.462 [kcal/mol]      386.860 [kJ/mol]       0.14734728 [Eh]       32338.986 [cm^-1]
  Total ZPE, Electronic energy at 0 [K]                               -231.99598943 [Eh]

  Thermal Energy, E (includes ZPE)
    Electronic E            0.000 [kcal/mol]        0.000 [kJ/mol]       0.00000000 [Eh]
    Translational E         0.889 [kcal/mol]        3.718 [kJ/mol]       0.00141628 [Eh]
    Rotational E            0.889 [kcal/mol]        3.718 [kJ/mol]       0.00141628 [Eh]
    Vibrational E          94.764 [kcal/mol]      396.492 [kJ/mol]       0.15101562 [Eh]
  Correction E             96.541 [kcal/mol]      403.928 [kJ/mol]       0.15384817 [Eh]
  Total E, Electronic energy at  298.15 [K]                           -231.98948854 [Eh]

  Enthalpy, H_trans = E_trans + k_B * T
    Electronic H            0.000 [kcal/mol]        0.000 [kJ/mol]       0.00000000 [Eh]
    Translational H         1.481 [kcal/mol]        6.197 [kJ/mol]       0.00236046 [Eh]
    Rotational H            0.889 [kcal/mol]        3.718 [kJ/mol]       0.00141628 [Eh]
    Vibrational H          94.764 [kcal/mol]      396.492 [kJ/mol]       0.15101562 [Eh]
  Correction H             97.134 [kcal/mol]      406.407 [kJ/mol]       0.15479236 [Eh]
  Total H, Enthalpy at  298.15 [K]                                    -231.98854435 [Eh]

  Gibbs free energy, G = H - T * S
    Electronic G            0.000 [kcal/mol]        0.000 [kJ/mol]       0.00000000 [Eh]
    Translational G       -10.094 [kcal/mol]      -42.233 [kJ/mol]      -0.01608581 [Eh]
    Rotational G           -6.871 [kcal/mol]      -28.750 [kJ/mol]      -0.01095022 [Eh]
    Vibrational G          90.672 [kcal/mol]      379.370 [kJ/mol]       0.14449435 [Eh]
  Correction G             73.706 [kcal/mol]      308.387 [kJ/mol]       0.11745832 [Eh]
  Total G, Free enthalpy at  298.15 [K]                               -232.02587840 [Eh]

    Psi4 stopped on: Thursday, 06 December 2018 04:02PM
    Psi4 wall time for execution: 0:03:36.53

*** Psi4 exiting successfully. Buy a developer a beer!
