
    -----------------------------------------------------------------------
          Psi4: An Open-Source Ab Initio Electronic Structure Package
                               Psi4 1.2.1 release

                         Git: Rev {HEAD} 406f4de 


    R. M. Parrish, L. A. Burns, D. G. A. Smith, A. C. Simmonett,
    A. E. DePrince III, E. G. Hohenstein, U. Bozkaya, A. Yu. Sokolov,
    R. Di Remigio, R. M. Richard, J. F. Gonthier, A. M. James,
    H. R. McAlexander, A. Kumar, M. Saitow, X. Wang, B. P. Pritchard,
    P. Verma, H. F. Schaefer III, K. Patkowski, R. A. King, E. F. Valeev,
    F. A. Evangelista, J. M. Turney, T. D. Crawford, and C. D. Sherrill,
    J. Chem. Theory Comput. 13(7) pp 3185--3197 (2017).
    (doi: 10.1021/acs.jctc.7b00174)


                         Additional Contributions by
    P. Kraus, H. Kruse, M. H. Lechner, M. C. Schieber, and R. A. Shaw

    -----------------------------------------------------------------------


    Psi4 started on: Thursday, 06 December 2018 03:25PM

    Process ID: 218449
    Host:       wr86
    PSIDATADIR: /usr/local/hpc1/software_molmod/psi4/psi4conda/share/psi4
    Memory:     500.0 MiB
    Threads:    16
    
  ==> Input File <==

--------------------------------------------------------------------------
memory 100 Gb

molecule conf_02 {
0 1
  C    -2.465404178400    -0.627029309400     0.396409749600
  H    -2.151490057000    -1.666300306800     0.469504405300
  H    -3.205005816300    -0.587207008900    -0.400411051500
  C    -3.117132354800    -0.202405728900     1.711853112800
  H    -3.473255431200     0.822263972400     1.659140369600
  H    -2.412697699500    -0.265046169300     2.536381543400
  H    -3.965035725400    -0.836000447700     1.952181158000
  C    -0.613431182700    -0.179158338700    -1.292303086100
  H    -1.328226395400    -0.115059101400    -2.103175044000
  H    -0.286278613500    -1.216504225300    -1.232501403300
  O     0.454524492900     0.655221743700    -1.657590278800
  H     1.143303329200     0.584311214100    -1.011434045200
  C    -1.266234611400     0.243814688700     0.017977714200
  H    -1.570796154800     1.283380457400    -0.069353099400
  H    -0.523839602000     0.203718560100     0.815319955500
}
set globals {
  reference rhf
  g_convergence gau_tight
  basis 6-31G(d)
}
optimize('scf')

--------------------------------------------------------------------------

  Memory set to  93.132 GiB by Python driver.
gradient() will perform analytic gradient computation.

*** tstart() called on wr86
*** at Thu Dec  6 15:25:39 2018

   => Loading Basis Set <=

    Name: 6-31G(D)
    Role: ORBITAL
    Keyword: BASIS
    atoms 1, 4, 8, 13               entry C          line   111 file /usr/local/hpc1/software_molmod/psi4/psi4conda/share/psi4/basis/6-31g_d_.gbs 
    atoms 2-3, 5-7, 9-10, 12, 14-15 entry H          line    44 file /usr/local/hpc1/software_molmod/psi4/psi4conda/share/psi4/basis/6-31g_d_.gbs 
    atoms 11                        entry O          line   145 file /usr/local/hpc1/software_molmod/psi4/psi4conda/share/psi4/basis/6-31g_d_.gbs 


         ---------------------------------------------------------
                                   SCF
            by Justin Turney, Rob Parrish, Andy Simmonett
                             and Daniel Smith
                              RHF Reference
                       16 Threads,  95367 MiB Core
         ---------------------------------------------------------

  ==> Geometry <==

    Molecular point group: c1
    Full point group: C1

    Geometry (in Angstrom), charge = 0, multiplicity = 1:

       Center              X                  Y                   Z               Mass       
    ------------   -----------------  -----------------  -----------------  -----------------
         C           -1.112839500844    -0.620230661166     0.583652251705    12.000000000000
         H           -0.798925379444    -1.659501658566     0.656746907405     1.007825032070
         H           -1.852441138744    -0.580408360666    -0.213168549395     1.007825032070
         C           -1.764567677244    -0.195607080666     1.899095614905    12.000000000000
         H           -2.120690753644     0.829062620634     1.846382871705     1.007825032070
         H           -1.060133021944    -0.258247521066     2.723624045505     1.007825032070
         H           -2.612471047844    -0.829201799466     2.139423660105     1.007825032070
         C            0.739133494856    -0.172359690466    -1.105060583995    12.000000000000
         H            0.024338282156    -0.108260453166    -1.915932541895     1.007825032070
         H            1.066286064056    -1.209705577066    -1.045258901195     1.007825032070
         O            1.807089170456     0.662020391934    -1.470347776695    15.994914619560
         H            2.495868006756     0.591109862334    -0.824191543095     1.007825032070
         C            0.086330066156     0.250613336934     0.205220216305    12.000000000000
         H           -0.218231477244     1.290179105634     0.117889402705     1.007825032070
         H            0.828725075556     0.210517208334     1.002562457605     1.007825032070

  Running in c1 symmetry.

  Rotational constants: A =      0.62842  B =      0.06565  C =      0.06240 [cm^-1]
  Rotational constants: A =  18839.44449  B =   1968.28145  C =   1870.83938 [MHz]
  Nuclear repulsion =  185.556218687893249

  Charge       = 0
  Multiplicity = 1
  Electrons    = 42
  Nalpha       = 21
  Nbeta        = 21

  ==> Algorithm <==

  SCF Algorithm Type is DF.
  DIIS enabled.
  MOM disabled.
  Fractional occupation disabled.
  Guess Type is SAD.
  Energy threshold   = 1.00e-08
  Density threshold  = 1.00e-08
  Integral threshold = 0.00e+00

  ==> Primary Basis <==

  Basis Set: 6-31G(D)
    Blend: 6-31G(D)
    Number of shells: 50
    Number of basis function: 95
    Number of Cartesian functions: 95
    Spherical Harmonics?: false
    Max angular momentum: 2

   => Loading Basis Set <=

    Name: (6-31G(D) AUX)
    Role: JKFIT
    Keyword: DF_BASIS_SCF
    atoms 1, 4, 8, 13               entry C          line   121 file /usr/local/hpc1/software_molmod/psi4/psi4conda/share/psi4/basis/cc-pvdz-jkfit.gbs 
    atoms 2-3, 5-7, 9-10, 12, 14-15 entry H          line    51 file /usr/local/hpc1/software_molmod/psi4/psi4conda/share/psi4/basis/cc-pvdz-jkfit.gbs 
    atoms 11                        entry O          line   221 file /usr/local/hpc1/software_molmod/psi4/psi4conda/share/psi4/basis/cc-pvdz-jkfit.gbs 

  ==> Pre-Iterations <==

   -------------------------------------------------------
    Irrep   Nso     Nmo     Nalpha   Nbeta   Ndocc  Nsocc
   -------------------------------------------------------
     A         95      95       0       0       0       0
   -------------------------------------------------------
    Total      95      95      21      21      21       0
   -------------------------------------------------------

  ==> Integral Setup <==

  ==> DiskDFJK: Density-Fitted J/K Matrices <==

    J tasked:                  Yes
    K tasked:                  Yes
    wK tasked:                  No
    OpenMP threads:             16
    Integrals threads:          16
    Memory (MB):             71525
    Algorithm:                Core
    Integral Cache:           NONE
    Schwarz Cutoff:          1E-12
    Fitting Condition:       1E-12

   => Auxiliary Basis Set <=

  Basis Set: (6-31G(D) AUX)
    Blend: CC-PVDZ-JKFIT
    Number of shells: 210
    Number of basis function: 655
    Number of Cartesian functions: 655
    Spherical Harmonics?: false
    Max angular momentum: 3

  Minimum eigenvalue in the overlap matrix is 3.6729639716E-03.
  Using Symmetric Orthogonalization.

  SCF Guess: Superposition of Atomic Densities via on-the-fly atomic UHF.

  ==> Iterations <==

                           Total Energy        Delta E     RMS |[F,P]|

   @DF-RHF iter   0:  -233.80856328846383   -2.33809e+02   1.69987e-01 
   @DF-RHF iter   1:  -232.02023255387971    1.78833e+00   1.65866e-02 
   @DF-RHF iter   2:  -232.13180082483979   -1.11568e-01   3.54819e-03 DIIS
   @DF-RHF iter   3:  -232.14306638392327   -1.12656e-02   1.35084e-03 DIIS
   @DF-RHF iter   4:  -232.14483943565259   -1.77305e-03   3.31621e-04 DIIS
   @DF-RHF iter   5:  -232.14495580453104   -1.16369e-04   1.07826e-04 DIIS
   @DF-RHF iter   6:  -232.14496702005545   -1.12155e-05   3.10643e-05 DIIS
   @DF-RHF iter   7:  -232.14496815902842   -1.13897e-06   6.76498e-06 DIIS
   @DF-RHF iter   8:  -232.14496826766577   -1.08637e-07   2.15369e-06 DIIS
   @DF-RHF iter   9:  -232.14496827625945   -8.59367e-09   6.79151e-07 DIIS
   @DF-RHF iter  10:  -232.14496827702899   -7.69546e-10   1.46084e-07 DIIS
   @DF-RHF iter  11:  -232.14496827707572   -4.67253e-11   4.27861e-08 DIIS
   @DF-RHF iter  12:  -232.14496827707873   -3.01270e-12   1.92758e-08 DIIS
   @DF-RHF iter  13:  -232.14496827707896   -2.27374e-13   4.19114e-09 DIIS

  ==> Post-Iterations <==

    Orbital Energies [Eh]
    ---------------------

    Doubly Occupied:                                                      

       1A    -20.552596     2A    -11.267268     3A    -11.222539  
       4A    -11.217192     5A    -11.213470     6A     -1.359584  
       7A     -1.073518     8A     -0.975580     9A     -0.863178  
      10A     -0.804203    11A     -0.693056    12A     -0.641306  
      13A     -0.611811    14A     -0.599369    15A     -0.552955  
      16A     -0.541621    17A     -0.515247    18A     -0.481714  
      19A     -0.477496    20A     -0.465754    21A     -0.426517  

    Virtual:                                                              

      22A      0.223465    23A      0.236257    24A      0.269981  
      25A      0.279954    26A      0.296640    27A      0.320546  
      28A      0.334959    29A      0.341603    30A      0.347879  
      31A      0.357161    32A      0.386833    33A      0.422213  
      34A      0.450766    35A      0.476742    36A      0.708070  
      37A      0.746148    38A      0.747010    39A      0.758347  
      40A      0.774647    41A      0.847065    42A      0.889906  
      43A      0.906857    44A      0.966111    45A      0.984328  
      46A      1.039005    47A      1.074179    48A      1.087922  
      49A      1.132691    50A      1.163877    51A      1.173762  
      52A      1.187124    53A      1.195139    54A      1.201698  
      55A      1.213924    56A      1.224839    57A      1.232667  
      58A      1.262222    59A      1.334417    60A      1.344217  
      61A      1.481967    62A      1.589882    63A      1.652813  
      64A      1.711911    65A      1.732844    66A      1.798250  
      67A      1.860955    68A      1.953979    69A      2.062955  
      70A      2.079067    71A      2.119416    72A      2.225976  
      73A      2.234221    74A      2.271896    75A      2.329971  
      76A      2.342411    77A      2.377067    78A      2.489041  
      79A      2.509594    80A      2.597931    81A      2.640397  
      82A      2.663181    83A      2.732579    84A      2.775644  
      85A      2.824321    86A      2.883348    87A      2.913333  
      88A      3.020341    89A      3.152660    90A      3.249233  
      91A      4.204836    92A      4.574169    93A      4.691823  
      94A      4.802120    95A      4.948872  

    Final Occupation by Irrep:
              A 
    DOCC [    21 ]

  Energy converged.

  @DF-RHF Final Energy:  -232.14496827707896

   => Energetics <=

    Nuclear Repulsion Energy =            185.5562186878932494
    One-Electron Energy =                -682.2904293854749085
    Two-Electron Energy =                 264.5892424205027282
    Total Energy =                       -232.1449682770789309



Properties will be evaluated at   0.000000,   0.000000,   0.000000 [a0]

Properties computed using the SCF density matrix

  Nuclear Dipole Moment: [e a0]
     X:    -3.9734      Y:    -1.6134      Z:     4.2004

  Electronic Dipole Moment: [e a0]
     X:     3.9081      Y:     1.2210      Z:    -3.5880

  Dipole Moment: [e a0]
     X:    -0.0653      Y:    -0.3925      Z:     0.6124     Total:     0.7303

  Dipole Moment: [D]
     X:    -0.1660      Y:    -0.9976      Z:     1.5566     Total:     1.8562


*** tstop() called on wr86 at Thu Dec  6 15:25:40 2018
Module time:
	user time   =      16.65 seconds =       0.28 minutes
	system time =       0.71 seconds =       0.01 minutes
	total time  =          1 seconds =       0.02 minutes
Total time:
	user time   =      16.65 seconds =       0.28 minutes
	system time =       0.71 seconds =       0.01 minutes
	total time  =          1 seconds =       0.02 minutes

*** tstart() called on wr86
*** at Thu Dec  6 15:25:40 2018


         ------------------------------------------------------------
                                   SCF GRAD                          
                          Rob Parrish, Justin Turney,                
                       Andy Simmonett, and Alex Sokolov              
         ------------------------------------------------------------

  ==> Geometry <==

    Molecular point group: c1
    Full point group: C1

    Geometry (in Angstrom), charge = 0, multiplicity = 1:

       Center              X                  Y                   Z               Mass       
    ------------   -----------------  -----------------  -----------------  -----------------
         C           -1.112839500844    -0.620230661166     0.583652251705    12.000000000000
         H           -0.798925379444    -1.659501658566     0.656746907405     1.007825032070
         H           -1.852441138744    -0.580408360666    -0.213168549395     1.007825032070
         C           -1.764567677244    -0.195607080666     1.899095614905    12.000000000000
         H           -2.120690753644     0.829062620634     1.846382871705     1.007825032070
         H           -1.060133021944    -0.258247521066     2.723624045505     1.007825032070
         H           -2.612471047844    -0.829201799466     2.139423660105     1.007825032070
         C            0.739133494856    -0.172359690466    -1.105060583995    12.000000000000
         H            0.024338282156    -0.108260453166    -1.915932541895     1.007825032070
         H            1.066286064056    -1.209705577066    -1.045258901195     1.007825032070
         O            1.807089170456     0.662020391934    -1.470347776695    15.994914619560
         H            2.495868006756     0.591109862334    -0.824191543095     1.007825032070
         C            0.086330066156     0.250613336934     0.205220216305    12.000000000000
         H           -0.218231477244     1.290179105634     0.117889402705     1.007825032070
         H            0.828725075556     0.210517208334     1.002562457605     1.007825032070

  Nuclear repulsion =  185.556218687893278

  ==> Basis Set <==

  Basis Set: 6-31G(D)
    Blend: 6-31G(D)
    Number of shells: 50
    Number of basis function: 95
    Number of Cartesian functions: 95
    Spherical Harmonics?: false
    Max angular momentum: 2

  ==> DFJKGrad: Density-Fitted SCF Gradients <==

    Gradient:                    1
    J tasked:                  Yes
    K tasked:                  Yes
    wK tasked:                  No
    OpenMP threads:             16
    Integrals threads:          16
    Memory (MB):             71525
    Schwarz Cutoff:          0E+00
    Fitting Condition:       1E-12

   => Auxiliary Basis Set <=

  Basis Set: (6-31G(D) AUX)
    Blend: CC-PVDZ-JKFIT
    Number of shells: 210
    Number of basis function: 655
    Number of Cartesian functions: 655
    Spherical Harmonics?: false
    Max angular momentum: 3


  -Total Gradient:
     Atom            X                  Y                   Z
    ------   -----------------  -----------------  -----------------
       1       -0.000003822266     0.000013078315     0.000021113814
       2        0.000000561551    -0.000008440719    -0.000006776275
       3       -0.000002045085    -0.000005675462    -0.000008952813
       4       -0.000002743827    -0.000007577355    -0.000006149288
       5       -0.000001100214     0.000006120678     0.000003230034
       6        0.000002378546     0.000002525457     0.000006116905
       7       -0.000004753690    -0.000001065750     0.000004289723
       8        0.000064259450     0.000052190749    -0.000006928599
       9       -0.000003732648    -0.000002720665    -0.000009632998
      10        0.000003954334    -0.000016521025    -0.000005427237
      11       -0.000052097993    -0.000025608929    -0.000006445817
      12       -0.000002827641    -0.000009331538     0.000014570172
      13       -0.000005574437    -0.000016666573    -0.000012294537
      14        0.000001982035     0.000012526356     0.000004865119
      15        0.000005561882     0.000007166460     0.000008421798


*** tstop() called on wr86 at Thu Dec  6 15:25:41 2018
Module time:
	user time   =      15.92 seconds =       0.27 minutes
	system time =       0.69 seconds =       0.01 minutes
	total time  =          1 seconds =       0.02 minutes
Total time:
	user time   =      32.61 seconds =       0.54 minutes
	system time =       1.40 seconds =       0.02 minutes
	total time  =          2 seconds =       0.03 minutes

			-----------------------------------------
			 OPTKING 2.0: for geometry optimizations 
			  - R.A. King,  Bethel University        
			-----------------------------------------

	Internal coordinates to be generated automatically.
	Detected frag 1 with atoms:  1 2 3 4 5 6 7 8 9 10 11 12 13 14 15
	---Fragment 1 Bond Connectivity---
	 1 : 2 3 4 13
	 2 : 1
	 3 : 1
	 4 : 1 5 6 7
	 5 : 4
	 6 : 4
	 7 : 4
	 8 : 9 10 11 13
	 9 : 8
	 10 : 8
	 11 : 8 12
	 12 : 11
	 13 : 1 8 14 15
	 14 : 13
	 15 : 13

	---Fragment 1 Geometry and Gradient---
	 C          -2.1029618865       -1.1720660888        1.1029429126
	 H          -1.5097501678       -3.1360036518        1.2410717936
	 H          -3.5006064295       -1.0968128469       -0.4028301785
	 C          -3.3345496529       -0.3696438121        3.5887706123
	 H          -4.0075247369        1.5667013000        3.4891579640
	 H          -2.0033610759       -0.4880170893        5.1469035349
	 H          -4.9368548105       -1.5669643099        4.0429247998
	 C           1.3967598809       -0.3257126113       -2.0882618640
	 H           0.0459926878       -0.2045826075       -3.6205877933
	 H           2.0149886404       -2.2860122421       -1.9752530612
	 O           3.4149036299        1.2510372351       -2.7785546181
	 H           4.7165069966        1.1170357543       -1.5574962975
	 C           0.1631401821        0.4735905721        0.3878100057
	 H          -0.4123977256        2.4380851720        0.2227786851
	 H           1.5660634323        0.3978198700        1.8945684760
	            -0.0000038223        0.0000130783        0.0000211138
	             0.0000005616       -0.0000084407       -0.0000067763
	            -0.0000020451       -0.0000056755       -0.0000089528
	            -0.0000027438       -0.0000075774       -0.0000061493
	            -0.0000011002        0.0000061207        0.0000032300
	             0.0000023785        0.0000025255        0.0000061169
	            -0.0000047537       -0.0000010657        0.0000042897
	             0.0000642595        0.0000521907       -0.0000069286
	            -0.0000037326       -0.0000027207       -0.0000096330
	             0.0000039543       -0.0000165210       -0.0000054272
	            -0.0000520980       -0.0000256089       -0.0000064458
	            -0.0000028276       -0.0000093315        0.0000145702
	            -0.0000055744       -0.0000166666       -0.0000122945
	             0.0000019820        0.0000125264        0.0000048651
	             0.0000055619        0.0000071665        0.0000084218

	Previous optimization step data not found.  Starting new optimization.

	---Fragment 1 Intrafragment Coordinates---
	 - Coordinate -           - BOHR/RAD -       - ANG/DEG -
	 R(1,2)           =         2.056218	       1.088103
	 R(1,3)           =         2.055827	       1.087897
	 R(1,4)           =         2.887911	       1.528217
	 R(1,13)          =         2.890470	       1.529571
	 R(4,5)           =         2.052377	       1.086071
	 R(4,6)           =         2.052767	       1.086278
	 R(4,7)           =         2.051149	       1.085422
	 R(8,9)           =         2.046281	       1.082845
	 R(8,10)          =         2.058580	       1.089354
	 R(8,11)          =         2.652461	       1.403622
	 R(8,13)          =         2.879520	       1.523776
	 R(11,12)         =         1.789724	       0.947081
	 R(13,14)         =         2.053708	       1.086776
	 R(13,15)         =         2.060159	       1.090189
	 B(1,4,5)         =         1.939286	     111.112891
	 B(1,4,6)         =         1.939902	     111.148208
	 B(1,4,7)         =         1.940711	     111.194557
	 B(1,13,8)        =         1.972056	     112.990499
	 B(1,13,14)       =         1.922800	     110.168346
	 B(1,13,15)       =         1.909208	     109.389588
	 B(2,1,3)         =         1.854901	     106.277976
	 B(2,1,4)         =         1.907731	     109.304941
	 B(2,1,13)        =         1.911583	     109.525665
	 B(3,1,4)         =         1.907485	     109.290864
	 B(3,1,13)        =         1.908094	     109.325726
	 B(4,1,13)        =         1.970465	     112.899312
	 B(5,4,6)         =         1.879563	     107.691020
	 B(5,4,7)         =         1.881080	     107.777967
	 B(6,4,7)         =         1.880584	     107.749513
	 B(8,11,12)       =         1.908457	     109.346548
	 B(8,13,14)       =         1.892817	     108.450452
	 B(8,13,15)       =         1.903880	     109.084260
	 B(9,8,10)        =         1.871005	     107.200710
	 B(9,8,11)        =         1.846452	     105.793932
	 B(9,8,13)        =         1.922701	     110.162634
	 B(10,8,11)       =         1.930349	     110.600837
	 B(10,8,13)       =         1.923871	     110.229696
	 B(11,8,13)       =         1.965717	     112.627297
	 B(14,13,15)      =         1.859587	     106.546467
	 D(1,13,8,9)      =         1.045732	      59.916023
	 D(1,13,8,10)     =        -1.015546	     -58.186484
	 D(1,13,8,11)     =         3.102623	     177.767229
	 D(2,1,4,5)       =        -3.107215	    -178.030296
	 D(2,1,4,6)       =         1.083144	      62.059559
	 D(2,1,4,7)       =        -1.011928	     -57.979229
	 D(2,1,13,8)      =         1.009945	      57.865586
	 D(2,1,13,14)     =         3.130038	     179.337951
	 D(2,1,13,15)     =        -1.114566	     -63.859932
	 D(3,1,4,5)       =        -1.083855	     -62.100331
	 D(3,1,4,6)       =         3.106503	     177.989525
	 D(3,1,4,7)       =         1.011431	      57.950737
	 D(3,1,13,8)      =        -1.015921	     -58.207997
	 D(3,1,13,14)     =         1.104172	      63.264369
	 D(3,1,13,15)     =        -3.140432	    -179.933514
	 D(4,1,13,8)      =         3.140015	     179.909580
	 D(4,1,13,14)     =        -1.023078	     -58.618054
	 D(4,1,13,15)     =         1.015503	      58.184063
	 D(5,4,1,13)      =         1.043737	      59.801721
	 D(6,4,1,13)      =        -1.049090	     -60.108423
	 D(7,4,1,13)      =         3.139023	     179.852789
	 D(9,8,11,12)     =        -3.064850	    -175.602957
	 D(9,8,13,14)     =        -1.091203	     -62.521347
	 D(9,8,13,15)     =        -3.109944	    -178.186693
	 D(10,8,11,12)    =        -1.044415	     -59.840544
	 D(10,8,13,14)    =         3.130704	     179.376146
	 D(10,8,13,15)    =         1.111963	      63.710800
	 D(11,8,13,14)    =         0.965688	      55.329859
	 D(11,8,13,15)    =        -1.053053	     -60.335487
	 D(12,11,8,13)    =         1.117020	      64.000508

	Current energy   :      -232.1449682771

	Generating empirical Hessian (Schlegel '84) for each fragment.
	Taking RFO optimization step.
	Going to follow RFO solution 1.
	Using RFO vector 1.
	Norm of target step-size    0.00059
	Projected energy change by RFO approximation:        -0.0000000135

	Back-transformation to cartesian coordinates...
	Successfully converged to displaced geometry.

	--- Internal Coordinate Step in ANG or DEG, aJ/ANG or AJ/DEG ---
	 ---------------------------------------------------------------------------
	   Coordinate                Previous        Force       Change         New 
	   ----------                --------       ------       ------       ------
	    1 R(1,2)          =      1.088103    -0.000064    -0.000012     1.088092
	    2 R(1,3)          =      1.087897    -0.000064    -0.000012     1.087885
	    3 R(1,4)          =      1.528217    -0.000075    -0.000016     1.528200
	    4 R(1,13)         =      1.529571    -0.000106    -0.000023     1.529548
	    5 R(4,5)          =      1.086071    -0.000049    -0.000009     1.086062
	    6 R(4,6)          =      1.086278    -0.000050    -0.000009     1.086269
	    7 R(4,7)          =      1.085422    -0.000044    -0.000008     1.085414
	    8 R(8,9)          =      1.082845    -0.000078    -0.000014     1.082831
	    9 R(8,10)         =      1.089354    -0.000137    -0.000025     1.089329
	   10 R(8,11)         =      1.403622     0.000533     0.000076     1.403698
	   11 R(8,13)         =      1.523776    -0.000137    -0.000029     1.523747
	   12 R(11,12)        =      0.947081    -0.000071    -0.000008     0.947073
	   13 R(13,14)        =      1.086776    -0.000091    -0.000017     1.086759
	   14 R(13,15)        =      1.090189    -0.000080    -0.000015     1.090175
	   15 B(1,4,5)        =    111.112891    -0.000000    -0.000625   111.112266
	   16 B(1,4,6)        =    111.148208    -0.000000    -0.000622   111.147587
	   17 B(1,4,7)        =    111.194557    -0.000000    -0.002123   111.192434
	   18 B(1,13,8)       =    112.990499    -0.000001    -0.004429   112.986070
	   19 B(1,13,14)      =    110.168346     0.000000    -0.000098   110.168248
	   20 B(1,13,15)      =    109.389588     0.000000     0.000015   109.389604
	   21 B(2,1,3)        =    106.277976     0.000000     0.004482   106.282459
	   22 B(2,1,4)        =    109.304941    -0.000000    -0.001841   109.303100
	   23 B(2,1,13)       =    109.525665     0.000000     0.001005   109.526670
	   24 B(3,1,4)        =    109.290864    -0.000000    -0.001798   109.289066
	   25 B(3,1,13)       =    109.325726     0.000000     0.001120   109.326845
	   26 B(4,1,13)       =    112.899312    -0.000000    -0.002541   112.896772
	   27 B(5,4,6)        =    107.691020     0.000000     0.002361   107.693381
	   28 B(5,4,7)        =    107.777967     0.000000     0.000619   107.778586
	   29 B(6,4,7)        =    107.749513     0.000000     0.000595   107.750109
	   30 B(8,11,12)      =    109.346548     0.000002     0.009735   109.356284
	   31 B(8,13,14)      =    108.450452     0.000000    -0.000064   108.450388
	   32 B(8,13,15)      =    109.084260     0.000000    -0.000322   109.083939
	   33 B(9,8,10)       =    107.200710     0.000000     0.002674   107.203384
	   34 B(9,8,11)       =    105.793932     0.000000     0.000978   105.794910
	   35 B(9,8,13)       =    110.162634    -0.000000    -0.001658   110.160976
	   36 B(10,8,11)      =    110.600837     0.000000     0.000017   110.600854
	   37 B(10,8,13)      =    110.229696    -0.000000    -0.002389   110.227306
	   38 B(11,8,13)      =    112.627297     0.000000     0.000620   112.627917
	   39 B(14,13,15)     =    106.546467     0.000000     0.005485   106.551952
	   40 D(1,13,8,9)     =     59.916023    -0.000000     0.003679    59.919702
	   41 D(1,13,8,10)    =    -58.186484    -0.000000     0.002874   -58.183611
	   42 D(1,13,8,11)    =    177.767229     0.000000     0.004198   177.771427
	   43 D(2,1,4,5)      =   -178.030296     0.000000     0.000678  -178.029618
	   44 D(2,1,4,6)      =     62.059559    -0.000000    -0.001472    62.058088
	   45 D(2,1,4,7)      =    -57.979229    -0.000000    -0.000382   -57.979611
	   46 D(2,1,13,8)     =     57.865586     0.000000     0.003731    57.869316
	   47 D(2,1,13,14)    =    179.337951     0.000000     0.000520   179.338472
	   48 D(2,1,13,15)    =    -63.859932     0.000000     0.007125   -63.852807
	   49 D(3,1,4,5)      =    -62.100331     0.000000     0.004012   -62.096318
	   50 D(3,1,4,6)      =    177.989525    -0.000000     0.001862   177.991387
	   51 D(3,1,4,7)      =     57.950737     0.000000     0.002952    57.953688
	   52 D(3,1,13,8)     =    -58.207997    -0.000000    -0.002856   -58.210853
	   53 D(3,1,13,14)    =     63.264369    -0.000000    -0.006067    63.258302
	   54 D(3,1,13,15)    =   -179.933514    -0.000000     0.000538  -179.932976
	   55 D(4,1,13,8)     =    179.909580    -0.000000     0.000359   179.909939
	   56 D(4,1,13,14)    =    -58.618054    -0.000000    -0.002852   -58.620906
	   57 D(4,1,13,15)    =     58.184063     0.000000     0.003753    58.187816
	   58 D(5,4,1,13)     =     59.801721     0.000000     0.002442    59.804163
	   59 D(6,4,1,13)     =    -60.108423    -0.000000     0.000292   -60.108131
	   60 D(7,4,1,13)     =    179.852789     0.000000     0.001381   179.854170
	   61 D(9,8,11,12)    =   -175.602957    -0.000000     0.010745  -175.592212
	   62 D(9,8,13,14)    =    -62.521347     0.000000     0.006794   -62.514553
	   63 D(9,8,13,15)    =   -178.186693    -0.000000     0.000495  -178.186198
	   64 D(10,8,11,12)   =    -59.840544     0.000000     0.014444   -59.826099
	   65 D(10,8,13,14)   =    179.376146     0.000000     0.005988   179.382134
	   66 D(10,8,13,15)   =     63.710800    -0.000000    -0.000311    63.710489
	   67 D(11,8,13,14)   =     55.329859     0.000000     0.007313    55.337172
	   68 D(11,8,13,15)   =    -60.335487    -0.000000     0.001014   -60.334473
	   69 D(12,11,8,13)   =     64.000508     0.000000     0.011787    64.012295
	 ---------------------------------------------------------------------------
	Successfully symmetrized geometry.

  ==> Convergence Check <==

  Measures of convergence in internal coordinates in au.
  Criteria marked as inactive (o), active & met (*), and active & unmet ( ).
  --------------------------------------------------------------------------------------------- ~
   Step     Total Energy     Delta E     MAX Force     RMS Force      MAX Disp      RMS Disp    ~
  --------------------------------------------------------------------------------------------- ~
    Convergence Criteria             o    1.50e-05 *    1.00e-05 *    6.00e-05 *    4.00e-05 *  ~
  --------------------------------------------------------------------------------------------- ~
      1    -232.14496828   -2.32e+02 o    6.47e-05      9.99e-06 *    2.52e-04      7.06e-05    ~
  ---------------------------------------------------------------------------------------------

	Writing optimization data to binary file.
	Structure for next step:
	Cartesian Geometry (in Angstrom)
	    C    -1.1128193018  -0.6202353996   0.5836346327
	    H    -0.7988715658  -1.6594801968   0.6567827261
	    H    -1.8524284810  -0.5803989432  -0.2131625095
	    C    -1.7645523296  -0.1956172640   1.8990584466
	    H    -2.1207276157   0.8290229482   1.8463100599
	    H    -1.0601144261  -0.2582338620   2.7235739668
	    H    -2.6124161386  -0.8292586719   2.1393672347
	    C     0.7390700661  -0.1723422510  -1.1050001752
	    H     0.0242626830  -0.1081936835  -1.9158386409
	    H     1.0661575031  -1.2096797887  -1.0451566753
	    O     1.8071359873   0.6620124228  -1.4703151560
	    H     2.4960732071   0.5910245158  -0.8243477059
	    C     0.0863063477   0.2506532470   0.2052591741
	    H    -0.2183043414   1.2901840440   0.1178900169
	    H     0.8286985688   0.2105226065   1.0025821368
			--------------------------
			 OPTKING Finished Execution 
			--------------------------

    Structure for next step:
    Molecular point group: c1
    Full point group: C1

    Geometry (in Angstrom), charge = 0, multiplicity = 1:

    C           -1.112821116849    -0.620240083357     0.583621417173
    H           -0.798873380854    -1.659484880563     0.656769510610
    H           -1.852430296016    -0.580403626977    -0.213175725020
    C           -1.764554144695    -0.195621947740     1.899045231142
    H           -2.120729430790     0.829018264430     1.846296844456
    H           -1.060116241182    -0.258238545742     2.723560751289
    H           -2.612417953601    -0.829263355613     2.139354019170
    C            0.739068251098    -0.172346934740    -1.105013390695
    H            0.024260867968    -0.108198367214    -1.915851856400
    H            1.066155688083    -1.209684472437    -1.045169890817
    O            1.807134172290     0.662007739079    -1.470328371482
    H            2.496071392008     0.591019832040    -0.824360921420
    C            0.086304532610     0.250648563268     0.205245958663
    H           -0.218306156483     1.290179360265     0.117876801369
    H            0.828696753767     0.210517922720     1.002568921352

gradient() will perform analytic gradient computation.

*** tstart() called on wr86
*** at Thu Dec  6 15:25:42 2018

   => Loading Basis Set <=

    Name: 6-31G(D)
    Role: ORBITAL
    Keyword: BASIS
    atoms 1, 4, 8, 13               entry C          line   111 file /usr/local/hpc1/software_molmod/psi4/psi4conda/share/psi4/basis/6-31g_d_.gbs 
    atoms 2-3, 5-7, 9-10, 12, 14-15 entry H          line    44 file /usr/local/hpc1/software_molmod/psi4/psi4conda/share/psi4/basis/6-31g_d_.gbs 
    atoms 11                        entry O          line   145 file /usr/local/hpc1/software_molmod/psi4/psi4conda/share/psi4/basis/6-31g_d_.gbs 


         ---------------------------------------------------------
                                   SCF
            by Justin Turney, Rob Parrish, Andy Simmonett
                             and Daniel Smith
                              RHF Reference
                       16 Threads,  95367 MiB Core
         ---------------------------------------------------------

  ==> Geometry <==

    Molecular point group: c1
    Full point group: C1

    Geometry (in Angstrom), charge = 0, multiplicity = 1:

       Center              X                  Y                   Z               Mass       
    ------------   -----------------  -----------------  -----------------  -----------------
         C           -1.112821116849    -0.620240083357     0.583621417173    12.000000000000
         H           -0.798873380854    -1.659484880563     0.656769510610     1.007825032070
         H           -1.852430296016    -0.580403626977    -0.213175725020     1.007825032070
         C           -1.764554144695    -0.195621947740     1.899045231142    12.000000000000
         H           -2.120729430790     0.829018264430     1.846296844456     1.007825032070
         H           -1.060116241182    -0.258238545742     2.723560751289     1.007825032070
         H           -2.612417953601    -0.829263355613     2.139354019170     1.007825032070
         C            0.739068251098    -0.172346934740    -1.105013390695    12.000000000000
         H            0.024260867968    -0.108198367214    -1.915851856400     1.007825032070
         H            1.066155688083    -1.209684472437    -1.045169890817     1.007825032070
         O            1.807134172290     0.662007739079    -1.470328371482    15.994914619560
         H            2.496071392008     0.591019832040    -0.824360921420     1.007825032070
         C            0.086304532610     0.250648563268     0.205245958663    12.000000000000
         H           -0.218306156483     1.290179360265     0.117876801369     1.007825032070
         H            0.828696753767     0.210517922720     1.002568921352     1.007825032070

  Running in c1 symmetry.

  Rotational constants: A =      0.62842  B =      0.06566  C =      0.06241 [cm^-1]
  Rotational constants: A =  18839.66675  B =   1968.31767  C =   1870.87702 [MHz]
  Nuclear repulsion =  185.557077091389999

  Charge       = 0
  Multiplicity = 1
  Electrons    = 42
  Nalpha       = 21
  Nbeta        = 21

  ==> Algorithm <==

  SCF Algorithm Type is DF.
  DIIS enabled.
  MOM disabled.
  Fractional occupation disabled.
  Guess Type is READ.
  Energy threshold   = 1.00e-08
  Density threshold  = 1.00e-08
  Integral threshold = 0.00e+00

  ==> Primary Basis <==

  Basis Set: 6-31G(D)
    Blend: 6-31G(D)
    Number of shells: 50
    Number of basis function: 95
    Number of Cartesian functions: 95
    Spherical Harmonics?: false
    Max angular momentum: 2

   => Loading Basis Set <=

    Name: (6-31G(D) AUX)
    Role: JKFIT
    Keyword: DF_BASIS_SCF
    atoms 1, 4, 8, 13               entry C          line   121 file /usr/local/hpc1/software_molmod/psi4/psi4conda/share/psi4/basis/cc-pvdz-jkfit.gbs 
    atoms 2-3, 5-7, 9-10, 12, 14-15 entry H          line    51 file /usr/local/hpc1/software_molmod/psi4/psi4conda/share/psi4/basis/cc-pvdz-jkfit.gbs 
    atoms 11                        entry O          line   221 file /usr/local/hpc1/software_molmod/psi4/psi4conda/share/psi4/basis/cc-pvdz-jkfit.gbs 

  Reading orbitals from file 180, no projection.

  ==> Pre-Iterations <==

   -------------------------------------------------------
    Irrep   Nso     Nmo     Nalpha   Nbeta   Ndocc  Nsocc
   -------------------------------------------------------
     A         95      95       0       0       0       0
   -------------------------------------------------------
    Total      95      95      21      21      21       0
   -------------------------------------------------------

  ==> Integral Setup <==

  ==> DiskDFJK: Density-Fitted J/K Matrices <==

    J tasked:                  Yes
    K tasked:                  Yes
    wK tasked:                  No
    OpenMP threads:             16
    Integrals threads:          16
    Memory (MB):             71525
    Algorithm:                Core
    Integral Cache:           NONE
    Schwarz Cutoff:          1E-12
    Fitting Condition:       1E-12

   => Auxiliary Basis Set <=

  Basis Set: (6-31G(D) AUX)
    Blend: CC-PVDZ-JKFIT
    Number of shells: 210
    Number of basis function: 655
    Number of Cartesian functions: 655
    Spherical Harmonics?: false
    Max angular momentum: 3

  Minimum eigenvalue in the overlap matrix is 3.6726321904E-03.
  Using Symmetric Orthogonalization.

  SCF Guess: Orbitals guess was supplied from a previous computation.

  ==> Iterations <==

                           Total Energy        Delta E     RMS |[F,P]|

   @DF-RHF iter   0:  -232.14499352012149   -2.32145e+02   7.34672e-06 
   @DF-RHF iter   1:  -232.14496828579757    2.52343e-05   1.92978e-06 
   @DF-RHF iter   2:  -232.14496828741991   -1.62234e-09   5.58283e-07 DIIS
   @DF-RHF iter   3:  -232.14496828771735   -2.97433e-10   2.81362e-07 DIIS
   @DF-RHF iter   4:  -232.14496828781557   -9.82254e-11   8.35565e-08 DIIS
   @DF-RHF iter   5:  -232.14496828782350   -7.92966e-12   2.80552e-08 DIIS
   @DF-RHF iter   6:  -232.14496828782436   -8.52651e-13   5.03870e-09 DIIS

  ==> Post-Iterations <==

    Orbital Energies [Eh]
    ---------------------

    Doubly Occupied:                                                      

       1A    -20.552586     2A    -11.267266     3A    -11.222531  
       4A    -11.217182     5A    -11.213462     6A     -1.359545  
       7A     -1.073533     8A     -0.975591     9A     -0.863176  
      10A     -0.804200    11A     -0.693050    12A     -0.641319  
      13A     -0.611802    14A     -0.599365    15A     -0.552943  
      16A     -0.541626    17A     -0.515240    18A     -0.481718  
      19A     -0.477497    20A     -0.465759    21A     -0.426517  

    Virtual:                                                              

      22A      0.223466    23A      0.236259    24A      0.269982  
      25A      0.279953    26A      0.296637    27A      0.320555  
      28A      0.334963    29A      0.341604    30A      0.347892  
      31A      0.357164    32A      0.386828    33A      0.422214  
      34A      0.450776    35A      0.476735    36A      0.708056  
      37A      0.746135    38A      0.747023    39A      0.758345  
      40A      0.774651    41A      0.847062    42A      0.889894  
      43A      0.906871    44A      0.966110    45A      0.984341  
      46A      1.039006    47A      1.074178    48A      1.087944  
      49A      1.132699    50A      1.163887    51A      1.173775  
      52A      1.187137    53A      1.195158    54A      1.201712  
      55A      1.213942    56A      1.224849    57A      1.232687  
      58A      1.262235    59A      1.334424    60A      1.344226  
      61A      1.482016    62A      1.589910    63A      1.652824  
      64A      1.711877    65A      1.732875    66A      1.798257  
      67A      1.860967    68A      1.953996    69A      2.062988  
      70A      2.079093    71A      2.119405    72A      2.226002  
      73A      2.234224    74A      2.271922    75A      2.330009  
      76A      2.342426    77A      2.377077    78A      2.488982  
      79A      2.509534    80A      2.597948    81A      2.640408  
      82A      2.663165    83A      2.732610    84A      2.775621  
      85A      2.824336    86A      2.883386    87A      2.913331  
      88A      3.020340    89A      3.152678    90A      3.249217  
      91A      4.204812    92A      4.574209    93A      4.691848  
      94A      4.802121    95A      4.948890  

    Final Occupation by Irrep:
              A 
    DOCC [    21 ]

  Energy converged.

  @DF-RHF Final Energy:  -232.14496828782436

   => Energetics <=

    Nuclear Repulsion Energy =            185.5570770913899992
    One-Electron Energy =                -682.2922755224345792
    Two-Electron Energy =                 264.5902301432201966
    Total Energy =                       -232.1449682878243834



Properties will be evaluated at   0.000000,   0.000000,   0.000000 [a0]

Properties computed using the SCF density matrix

  Nuclear Dipole Moment: [e a0]
     X:    -3.9734      Y:    -1.6135      Z:     4.2002

  Electronic Dipole Moment: [e a0]
     X:     3.9081      Y:     1.2209      Z:    -3.5878

  Dipole Moment: [e a0]
     X:    -0.0653      Y:    -0.3926      Z:     0.6123     Total:     0.7303

  Dipole Moment: [D]
     X:    -0.1659      Y:    -0.9978      Z:     1.5564     Total:     1.8563


*** tstop() called on wr86 at Thu Dec  6 15:25:43 2018
Module time:
	user time   =      11.53 seconds =       0.19 minutes
	system time =       0.35 seconds =       0.01 minutes
	total time  =          1 seconds =       0.02 minutes
Total time:
	user time   =      47.46 seconds =       0.79 minutes
	system time =       1.92 seconds =       0.03 minutes
	total time  =          4 seconds =       0.07 minutes

*** tstart() called on wr86
*** at Thu Dec  6 15:25:43 2018


         ------------------------------------------------------------
                                   SCF GRAD                          
                          Rob Parrish, Justin Turney,                
                       Andy Simmonett, and Alex Sokolov              
         ------------------------------------------------------------

  ==> Geometry <==

    Molecular point group: c1
    Full point group: C1

    Geometry (in Angstrom), charge = 0, multiplicity = 1:

       Center              X                  Y                   Z               Mass       
    ------------   -----------------  -----------------  -----------------  -----------------
         C           -1.112821116849    -0.620240083357     0.583621417173    12.000000000000
         H           -0.798873380854    -1.659484880563     0.656769510610     1.007825032070
         H           -1.852430296016    -0.580403626977    -0.213175725020     1.007825032070
         C           -1.764554144695    -0.195621947740     1.899045231142    12.000000000000
         H           -2.120729430790     0.829018264430     1.846296844456     1.007825032070
         H           -1.060116241182    -0.258238545742     2.723560751289     1.007825032070
         H           -2.612417953601    -0.829263355613     2.139354019170     1.007825032070
         C            0.739068251098    -0.172346934740    -1.105013390695    12.000000000000
         H            0.024260867968    -0.108198367214    -1.915851856400     1.007825032070
         H            1.066155688083    -1.209684472437    -1.045169890817     1.007825032070
         O            1.807134172290     0.662007739079    -1.470328371482    15.994914619560
         H            2.496071392008     0.591019832040    -0.824360921420     1.007825032070
         C            0.086304532610     0.250648563268     0.205245958663    12.000000000000
         H           -0.218306156483     1.290179360265     0.117876801369     1.007825032070
         H            0.828696753767     0.210517922720     1.002568921352     1.007825032070

  Nuclear repulsion =  185.557077091390028

  ==> Basis Set <==

  Basis Set: 6-31G(D)
    Blend: 6-31G(D)
    Number of shells: 50
    Number of basis function: 95
    Number of Cartesian functions: 95
    Spherical Harmonics?: false
    Max angular momentum: 2

  ==> DFJKGrad: Density-Fitted SCF Gradients <==

    Gradient:                    1
    J tasked:                  Yes
    K tasked:                  Yes
    wK tasked:                  No
    OpenMP threads:             16
    Integrals threads:          16
    Memory (MB):             71525
    Schwarz Cutoff:          0E+00
    Fitting Condition:       1E-12

   => Auxiliary Basis Set <=

  Basis Set: (6-31G(D) AUX)
    Blend: CC-PVDZ-JKFIT
    Number of shells: 210
    Number of basis function: 655
    Number of Cartesian functions: 655
    Spherical Harmonics?: false
    Max angular momentum: 3


  -Total Gradient:
     Atom            X                  Y                   Z
    ------   -----------------  -----------------  -----------------
       1        0.000000057629     0.000002819755     0.000004181922
       2        0.000000224886    -0.000000373647     0.000000400453
       3       -0.000000139211     0.000000565921    -0.000000142842
       4        0.000003317920    -0.000000893491    -0.000004727796
       5        0.000000031021     0.000000162496    -0.000000367620
       6        0.000000327244    -0.000000062500    -0.000000061823
       7        0.000001196008     0.000000009042    -0.000001328011
       8        0.000005780474     0.000013524663    -0.000009560104
       9       -0.000006760089    -0.000004697752     0.000002735388
      10       -0.000003586864    -0.000003215184     0.000001713879
      11       -0.000001669299    -0.000006990158     0.000010204877
      12        0.000006063295     0.000005356550    -0.000001612715
      13       -0.000007182621    -0.000006514185    -0.000000673527
      14        0.000000306883     0.000000696680    -0.000001797183
      15        0.000002032720    -0.000000388191     0.000001035104


*** tstop() called on wr86 at Thu Dec  6 15:25:44 2018
Module time:
	user time   =      14.77 seconds =       0.25 minutes
	system time =       0.63 seconds =       0.01 minutes
	total time  =          1 seconds =       0.02 minutes
Total time:
	user time   =      62.25 seconds =       1.04 minutes
	system time =       2.55 seconds =       0.04 minutes
	total time  =          5 seconds =       0.08 minutes

			-----------------------------------------
			 OPTKING 2.0: for geometry optimizations 
			  - R.A. King,  Bethel University        
			-----------------------------------------

	Previous internal coordinate definitions found.
	---Fragment 1 Geometry and Gradient---
	 C          -2.1029271457       -1.1720838942        1.1028846437
	 H          -1.5096519047       -3.1359719459        1.2411145075
	 H          -3.5005859397       -1.0968039015       -0.4028437385
	 C          -3.3345240801       -0.3696719068        3.5886754008
	 H          -4.0075978261        1.5666174789        3.4889953960
	 H          -2.0033293649       -0.4880001284        5.1467839262
	 H          -4.9367544769       -1.5670806341        4.0427931975
	 C           1.3966365881       -0.3256885065       -2.0881726816
	 H           0.0458463962       -0.2044652821       -3.6204353198
	 H           2.0147422655       -2.2859723601       -1.9750848560
	 O           3.4149886710        1.2510133247       -2.7785179475
	 H           4.7168913390        1.1168656217       -1.5578163761
	 C           0.1630919307        0.4736571402        0.3878586518
	 H          -0.4125388489        2.4380856532        0.2227548720
	 H           1.5660099118        0.3978212200        1.8945806907
	             0.0000000576        0.0000028198        0.0000041819
	             0.0000002249       -0.0000003736        0.0000004005
	            -0.0000001392        0.0000005659       -0.0000001428
	             0.0000033179       -0.0000008935       -0.0000047278
	             0.0000000310        0.0000001625       -0.0000003676
	             0.0000003272       -0.0000000625       -0.0000000618
	             0.0000011960        0.0000000090       -0.0000013280
	             0.0000057805        0.0000135247       -0.0000095601
	            -0.0000067601       -0.0000046978        0.0000027354
	            -0.0000035869       -0.0000032152        0.0000017139
	            -0.0000016693       -0.0000069902        0.0000102049
	             0.0000060633        0.0000053566       -0.0000016127
	            -0.0000071826       -0.0000065142       -0.0000006735
	             0.0000003069        0.0000006967       -0.0000017972
	             0.0000020327       -0.0000003882        0.0000010351

	---Fragment 1 Intrafragment Coordinates---
	 - Coordinate -           - BOHR/RAD -       - ANG/DEG -
	 R(1,2)           =         2.056195	       1.088092
	 R(1,3)           =         2.055805	       1.087885
	 R(1,4)           =         2.887880	       1.528200
	 R(1,13)          =         2.890427	       1.529548
	 R(4,5)           =         2.052360	       1.086062
	 R(4,6)           =         2.052750	       1.086269
	 R(4,7)           =         2.051135	       1.085414
	 R(8,9)           =         2.046255	       1.082831
	 R(8,10)          =         2.058533	       1.089329
	 R(8,11)          =         2.652604	       1.403698
	 R(8,13)          =         2.879465	       1.523747
	 R(11,12)         =         1.789709	       0.947073
	 R(13,14)         =         2.053677	       1.086759
	 R(13,15)         =         2.060131	       1.090175
	 B(1,4,5)         =         1.939275	     111.112266
	 B(1,4,6)         =         1.939891	     111.147587
	 B(1,4,7)         =         1.940674	     111.192434
	 B(1,13,8)        =         1.971979	     112.986070
	 B(1,13,14)       =         1.922799	     110.168248
	 B(1,13,15)       =         1.909209	     109.389604
	 B(2,1,3)         =         1.854979	     106.282459
	 B(2,1,4)         =         1.907699	     109.303100
	 B(2,1,13)        =         1.911601	     109.526670
	 B(3,1,4)         =         1.907454	     109.289066
	 B(3,1,13)        =         1.908113	     109.326845
	 B(4,1,13)        =         1.970420	     112.896772
	 B(5,4,6)         =         1.879604	     107.693381
	 B(5,4,7)         =         1.881091	     107.778586
	 B(6,4,7)         =         1.880594	     107.750109
	 B(8,11,12)       =         1.908627	     109.356284
	 B(8,13,14)       =         1.892816	     108.450388
	 B(8,13,15)       =         1.903874	     109.083939
	 B(9,8,10)        =         1.871052	     107.203384
	 B(9,8,11)        =         1.846470	     105.794910
	 B(9,8,13)        =         1.922672	     110.160976
	 B(10,8,11)       =         1.930349	     110.600854
	 B(10,8,13)       =         1.923829	     110.227306
	 B(11,8,13)       =         1.965728	     112.627917
	 B(14,13,15)      =         1.859682	     106.551952
	 D(1,13,8,9)      =         1.045796	      59.919702
	 D(1,13,8,10)     =        -1.015496	     -58.183611
	 D(1,13,8,11)     =         3.102697	     177.771427
	 D(2,1,4,5)       =        -3.107203	    -178.029618
	 D(2,1,4,6)       =         1.083118	      62.058088
	 D(2,1,4,7)       =        -1.011935	     -57.979611
	 D(2,1,13,8)      =         1.010010	      57.869316
	 D(2,1,13,14)     =         3.130047	     179.338472
	 D(2,1,13,15)     =        -1.114442	     -63.852807
	 D(3,1,4,5)       =        -1.083785	     -62.096318
	 D(3,1,4,6)       =         3.106536	     177.991387
	 D(3,1,4,7)       =         1.011483	      57.953688
	 D(3,1,13,8)      =        -1.015971	     -58.210853
	 D(3,1,13,14)     =         1.104066	      63.258302
	 D(3,1,13,15)     =        -3.140423	    -179.932976
	 D(4,1,13,8)      =         3.140021	     179.909939
	 D(4,1,13,14)     =        -1.023128	     -58.620906
	 D(4,1,13,15)     =         1.015569	      58.187816
	 D(5,4,1,13)      =         1.043780	      59.804163
	 D(6,4,1,13)      =        -1.049085	     -60.108131
	 D(7,4,1,13)      =         3.139047	     179.854170
	 D(9,8,11,12)     =        -3.064662	    -175.592212
	 D(9,8,13,14)     =        -1.091085	     -62.514553
	 D(9,8,13,15)     =        -3.109936	    -178.186198
	 D(10,8,11,12)    =        -1.044162	     -59.826099
	 D(10,8,13,14)    =         3.130809	     179.382134
	 D(10,8,13,15)    =         1.111958	      63.710489
	 D(11,8,13,14)    =         0.965816	      55.337172
	 D(11,8,13,15)    =        -1.053035	     -60.334473
	 D(12,11,8,13)    =         1.117225	      64.012295

	Current energy   :      -232.1449682878

	Energy change for the previous step:
		Projected    :        -0.0000000135
		Actual       :        -0.0000000107
	Energy ratio indicates good step: Trust radius increased to 1.000e+00.


	Performing BFGS update.
	Previous computed or guess Hessian on step 1.
	Steps to be used in Hessian update: 1
	Taking RFO optimization step.
	Going to follow RFO solution 1.
	Using RFO vector 1.
	Norm of target step-size    0.00036
	Projected energy change by RFO approximation:        -0.0000000058

	Back-transformation to cartesian coordinates...
	Successfully converged to displaced geometry.

	--- Internal Coordinate Step in ANG or DEG, aJ/ANG or AJ/DEG ---
	 ---------------------------------------------------------------------------
	   Coordinate                Previous        Force       Change         New 
	   ----------                --------       ------       ------       ------
	    1 R(1,2)          =      1.088092    -0.000004    -0.000002     1.088090
	    2 R(1,3)          =      1.087885    -0.000002    -0.000001     1.087884
	    3 R(1,4)          =      1.528200     0.000065     0.000011     1.528211
	    4 R(1,13)         =      1.529548     0.000047     0.000007     1.529555
	    5 R(4,5)          =      1.086062    -0.000001    -0.000001     1.086061
	    6 R(4,6)          =      1.086269    -0.000001    -0.000001     1.086267
	    7 R(4,7)          =      1.085414     0.000010     0.000001     1.085414
	    8 R(8,9)          =      1.082831    -0.000018    -0.000004     1.082827
	    9 R(8,10)         =      1.089329    -0.000017    -0.000005     1.089323
	   10 R(8,11)         =      1.403698    -0.000001     0.000008     1.403705
	   11 R(8,13)         =      1.523747     0.000034     0.000004     1.523751
	   12 R(11,12)        =      0.947073    -0.000024    -0.000003     0.947070
	   13 R(13,14)        =      1.086759    -0.000006    -0.000003     1.086756
	   14 R(13,15)        =      1.090175    -0.000018    -0.000004     1.090170
	   15 B(1,4,5)        =    111.112266     0.000000    -0.000048   111.112218
	   16 B(1,4,6)        =    111.147587     0.000000    -0.000095   111.147492
	   17 B(1,4,7)        =    111.192434     0.000000     0.000397   111.192831
	   18 B(1,13,8)       =    112.986070    -0.000000    -0.000773   112.985297
	   19 B(1,13,14)      =    110.168248    -0.000000    -0.000461   110.167787
	   20 B(1,13,15)      =    109.389604     0.000000    -0.000044   109.389559
	   21 B(2,1,3)        =    106.282459     0.000000     0.000070   106.282528
	   22 B(2,1,4)        =    109.303100    -0.000000    -0.000227   109.302873
	   23 B(2,1,13)       =    109.526670    -0.000000    -0.000072   109.526599
	   24 B(3,1,4)        =    109.289066    -0.000000    -0.000327   109.288739
	   25 B(3,1,13)       =    109.326845    -0.000000     0.000041   109.326886
	   26 B(4,1,13)       =    112.896772     0.000000     0.000489   112.897261
	   27 B(5,4,6)        =    107.693381    -0.000000     0.000031   107.693412
	   28 B(5,4,7)        =    107.778586    -0.000000    -0.000152   107.778434
	   29 B(6,4,7)        =    107.750109    -0.000000    -0.000148   107.749960
	   30 B(8,11,12)      =    109.356284    -0.000001    -0.003356   109.352928
	   31 B(8,13,14)      =    108.450388     0.000000     0.000725   108.451112
	   32 B(8,13,15)      =    109.083939     0.000000     0.000379   109.084318
	   33 B(9,8,10)       =    107.203384     0.000000     0.001545   107.204928
	   34 B(9,8,11)       =    105.794910    -0.000001    -0.003932   105.790977
	   35 B(9,8,13)       =    110.160976     0.000000     0.001433   110.162409
	   36 B(10,8,11)      =    110.600854    -0.000000    -0.001127   110.599728
	   37 B(10,8,13)      =    110.227306     0.000000     0.001789   110.229096
	   38 B(11,8,13)      =    112.627917     0.000000     0.000172   112.628088
	   39 B(14,13,15)     =    106.551952    -0.000000     0.000244   106.552196
	   40 D(1,13,8,9)     =     59.919702     0.000000    -0.002118    59.917584
	   41 D(1,13,8,10)    =    -58.183611    -0.000000    -0.005994   -58.189605
	   42 D(1,13,8,11)    =    177.771427    -0.000000    -0.005995   177.765432
	   43 D(2,1,4,5)      =   -178.029618     0.000000    -0.001042  -178.030660
	   44 D(2,1,4,6)      =     62.058088     0.000000    -0.000985    62.057102
	   45 D(2,1,4,7)      =    -57.979611     0.000000    -0.001001   -57.980612
	   46 D(2,1,13,8)     =     57.869316    -0.000000     0.002202    57.871519
	   47 D(2,1,13,14)    =    179.338472     0.000000     0.002269   179.340740
	   48 D(2,1,13,15)    =    -63.852807    -0.000000     0.002271   -63.850536
	   49 D(3,1,4,5)      =    -62.096318    -0.000000    -0.001269   -62.097587
	   50 D(3,1,4,6)      =    177.991387    -0.000000    -0.001212   177.990176
	   51 D(3,1,4,7)      =     57.953688    -0.000000    -0.001227    57.952462
	   52 D(3,1,13,8)     =    -58.210853     0.000000     0.002136   -58.208717
	   53 D(3,1,13,14)    =     63.258302     0.000000     0.002202    63.260504
	   54 D(3,1,13,15)    =   -179.932976     0.000000     0.002204  -179.930772
	   55 D(4,1,13,8)     =    179.909939    -0.000000     0.002194   179.912133
	   56 D(4,1,13,14)    =    -58.620906     0.000000     0.002260   -58.618646
	   57 D(4,1,13,15)    =     58.187816    -0.000000     0.002263    58.190078
	   58 D(5,4,1,13)     =     59.804163    -0.000000    -0.001120    59.803043
	   59 D(6,4,1,13)     =    -60.108131     0.000000    -0.001063   -60.109194
	   60 D(7,4,1,13)     =    179.854170     0.000000    -0.001078   179.853092
	   61 D(9,8,11,12)    =   -175.592212     0.000000     0.005792  -175.586420
	   62 D(9,8,13,14)    =    -62.514553     0.000000    -0.001535   -62.516088
	   63 D(9,8,13,15)    =   -178.186198     0.000000    -0.002422  -178.188621
	   64 D(10,8,11,12)   =    -59.826099    -0.000000     0.004875   -59.821225
	   65 D(10,8,13,14)   =    179.382134    -0.000000    -0.005411   179.376724
	   66 D(10,8,13,15)   =     63.710489    -0.000000    -0.006298    63.704191
	   67 D(11,8,13,14)   =     55.337172    -0.000000    -0.005411    55.331760
	   68 D(11,8,13,15)   =    -60.334473    -0.000000    -0.006299   -60.340772
	   69 D(12,11,8,13)   =     64.012295     0.000000     0.006491    64.018786
	 ---------------------------------------------------------------------------
	Successfully symmetrized geometry.

  ==> Convergence Check <==

  Measures of convergence in internal coordinates in au.
  Criteria marked as inactive (o), active & met (*), and active & unmet ( ).
  ---------------------------------------------------------------------------------------------
   Step     Total Energy     Delta E     MAX Force     RMS Force      MAX Disp      RMS Disp   
  ---------------------------------------------------------------------------------------------
    Convergence Criteria             o    1.50e-05 *    1.00e-05 *    6.00e-05 *    4.00e-05 *
  ---------------------------------------------------------------------------------------------
      2    -232.14496829   -1.07e-08 o    1.38e-05 *    2.68e-06 *    1.13e-04      4.30e-05    ~
  ---------------------------------------------------------------------------------------------

	Writing optimization data to binary file.
	Structure for next step:
	Cartesian Geometry (in Angstrom)
	    C    -1.1128155946  -0.6202414610   0.5836317455
	    H    -0.7988794606  -1.6594870461   0.6567920052
	    H    -1.8524074593  -0.5804014733  -0.2131792884
	    C    -1.7645852902  -0.1956157381   1.8990474433
	    H    -2.1207346701   0.8290320887   1.8462950095
	    H    -1.0601742350  -0.2582546001   2.7235827147
	    H    -2.6124726753  -0.8292365430   2.1393311155
	    C     0.7390745094  -0.1723562732  -1.1050001039
	    H     0.0242728594  -0.1082198995  -1.9158389662
	    H     1.0662400405  -1.2096644685  -1.0451715535
	    O     1.8070800391   0.6620577043  -1.4703850259
	    H     2.4960559596   0.5910198884  -0.8244688923
	    C     0.0863323841   0.2506363602   0.2052750378
	    H    -0.2182648975   1.2901707729   0.1179348597
	    H     0.8287214278   0.2104701557   1.0025931984
			--------------------------
			 OPTKING Finished Execution 
			--------------------------

    Structure for next step:
    Molecular point group: c1
    Full point group: C1

    Geometry (in Angstrom), charge = 0, multiplicity = 1:

    C           -1.112805901321    -0.620249090779     0.583635060365
    H           -0.798869767310    -1.659494675816     0.656795320097
    H           -1.852397766057    -0.580409103087    -0.213175973551
    C           -1.764575596877    -0.195623367870     1.899050758202
    H           -2.120724976762     0.829024458911     1.846298324342
    H           -1.060164541707    -0.258262229855     2.723586029573
    H           -2.612462982036    -0.829244172695     2.139334430359
    C            0.739084202717    -0.172363902960    -1.104996788997
    H            0.024282552718    -0.108227529223    -1.915835651281
    H            1.066249733772    -1.209672098275    -1.045168238604
    O            1.807089732428     0.662050074588    -1.470381711023
    H            2.496065652938     0.591012258658    -0.824465577417
    C            0.086342077361     0.250628730501     0.205278352677
    H           -0.218255204175     1.290163143179     0.117938174566
    H            0.828731121043     0.210462525968     1.002596513263

gradient() will perform analytic gradient computation.

*** tstart() called on wr86
*** at Thu Dec  6 15:25:44 2018

   => Loading Basis Set <=

    Name: 6-31G(D)
    Role: ORBITAL
    Keyword: BASIS
    atoms 1, 4, 8, 13               entry C          line   111 file /usr/local/hpc1/software_molmod/psi4/psi4conda/share/psi4/basis/6-31g_d_.gbs 
    atoms 2-3, 5-7, 9-10, 12, 14-15 entry H          line    44 file /usr/local/hpc1/software_molmod/psi4/psi4conda/share/psi4/basis/6-31g_d_.gbs 
    atoms 11                        entry O          line   145 file /usr/local/hpc1/software_molmod/psi4/psi4conda/share/psi4/basis/6-31g_d_.gbs 


         ---------------------------------------------------------
                                   SCF
            by Justin Turney, Rob Parrish, Andy Simmonett
                             and Daniel Smith
                              RHF Reference
                       16 Threads,  95367 MiB Core
         ---------------------------------------------------------

  ==> Geometry <==

    Molecular point group: c1
    Full point group: C1

    Geometry (in Angstrom), charge = 0, multiplicity = 1:

       Center              X                  Y                   Z               Mass       
    ------------   -----------------  -----------------  -----------------  -----------------
         C           -1.112805901321    -0.620249090779     0.583635060365    12.000000000000
         H           -0.798869767310    -1.659494675816     0.656795320097     1.007825032070
         H           -1.852397766057    -0.580409103087    -0.213175973551     1.007825032070
         C           -1.764575596877    -0.195623367870     1.899050758202    12.000000000000
         H           -2.120724976762     0.829024458911     1.846298324342     1.007825032070
         H           -1.060164541707    -0.258262229855     2.723586029573     1.007825032070
         H           -2.612462982036    -0.829244172695     2.139334430359     1.007825032070
         C            0.739084202717    -0.172363902960    -1.104996788997    12.000000000000
         H            0.024282552718    -0.108227529223    -1.915835651281     1.007825032070
         H            1.066249733772    -1.209672098275    -1.045168238604     1.007825032070
         O            1.807089732428     0.662050074588    -1.470381711023    15.994914619560
         H            2.496065652938     0.591012258658    -0.824465577417     1.007825032070
         C            0.086342077361     0.250628730501     0.205278352677    12.000000000000
         H           -0.218255204175     1.290163143179     0.117938174566     1.007825032070
         H            0.828731121043     0.210462525968     1.002596513263     1.007825032070

  Running in c1 symmetry.

  Rotational constants: A =      0.62843  B =      0.06566  C =      0.06241 [cm^-1]
  Rotational constants: A =  18839.84386  B =   1968.29542  C =   1870.85991 [MHz]
  Nuclear repulsion =  185.556563465275815

  Charge       = 0
  Multiplicity = 1
  Electrons    = 42
  Nalpha       = 21
  Nbeta        = 21

  ==> Algorithm <==

  SCF Algorithm Type is DF.
  DIIS enabled.
  MOM disabled.
  Fractional occupation disabled.
  Guess Type is READ.
  Energy threshold   = 1.00e-08
  Density threshold  = 1.00e-08
  Integral threshold = 0.00e+00

  ==> Primary Basis <==

  Basis Set: 6-31G(D)
    Blend: 6-31G(D)
    Number of shells: 50
    Number of basis function: 95
    Number of Cartesian functions: 95
    Spherical Harmonics?: false
    Max angular momentum: 2

   => Loading Basis Set <=

    Name: (6-31G(D) AUX)
    Role: JKFIT
    Keyword: DF_BASIS_SCF
    atoms 1, 4, 8, 13               entry C          line   121 file /usr/local/hpc1/software_molmod/psi4/psi4conda/share/psi4/basis/cc-pvdz-jkfit.gbs 
    atoms 2-3, 5-7, 9-10, 12, 14-15 entry H          line    51 file /usr/local/hpc1/software_molmod/psi4/psi4conda/share/psi4/basis/cc-pvdz-jkfit.gbs 
    atoms 11                        entry O          line   221 file /usr/local/hpc1/software_molmod/psi4/psi4conda/share/psi4/basis/cc-pvdz-jkfit.gbs 

  Reading orbitals from file 180, no projection.

  ==> Pre-Iterations <==

   -------------------------------------------------------
    Irrep   Nso     Nmo     Nalpha   Nbeta   Ndocc  Nsocc
   -------------------------------------------------------
     A         95      95       0       0       0       0
   -------------------------------------------------------
    Total      95      95      21      21      21       0
   -------------------------------------------------------

  ==> Integral Setup <==

  ==> DiskDFJK: Density-Fitted J/K Matrices <==

    J tasked:                  Yes
    K tasked:                  Yes
    wK tasked:                  No
    OpenMP threads:             16
    Integrals threads:          16
    Memory (MB):             71525
    Algorithm:                Core
    Integral Cache:           NONE
    Schwarz Cutoff:          1E-12
    Fitting Condition:       1E-12

   => Auxiliary Basis Set <=

  Basis Set: (6-31G(D) AUX)
    Blend: CC-PVDZ-JKFIT
    Number of shells: 210
    Number of basis function: 655
    Number of Cartesian functions: 655
    Spherical Harmonics?: false
    Max angular momentum: 3

  Minimum eigenvalue in the overlap matrix is 3.6726927502E-03.
  Using Symmetric Orthogonalization.

  SCF Guess: Orbitals guess was supplied from a previous computation.

  ==> Iterations <==

                           Total Energy        Delta E     RMS |[F,P]|

   @DF-RHF iter   0:  -232.14496870681054   -2.32145e+02   4.32967e-06 
   @DF-RHF iter   1:  -232.14496828862772    4.18183e-07   6.31989e-07 
   @DF-RHF iter   2:  -232.14496828904970   -4.21977e-10   2.35776e-07 DIIS
   @DF-RHF iter   3:  -232.14496828911501   -6.53131e-11   1.04978e-07 DIIS
   @DF-RHF iter   4:  -232.14496828912328   -8.27072e-12   1.87701e-08 DIIS
   @DF-RHF iter   5:  -232.14496828912394   -6.53699e-13   8.61502e-09 DIIS

  ==> Post-Iterations <==

    Orbital Energies [Eh]
    ---------------------

    Doubly Occupied:                                                      

       1A    -20.552585     2A    -11.267265     3A    -11.222532  
       4A    -11.217182     5A    -11.213463     6A     -1.359545  
       7A     -1.073531     8A     -0.975589     9A     -0.863175  
      10A     -0.804201    11A     -0.693053    12A     -0.641314  
      13A     -0.611800    14A     -0.599362    15A     -0.552944  
      16A     -0.541628    17A     -0.515234    18A     -0.481720  
      19A     -0.477498    20A     -0.465764    21A     -0.426518  

    Virtual:                                                              

      22A      0.223465    23A      0.236260    24A      0.269985  
      25A      0.279955    26A      0.296636    27A      0.320554  
      28A      0.334964    29A      0.341604    30A      0.347889  
      31A      0.357164    32A      0.386825    33A      0.422210  
      34A      0.450774    35A      0.476732    36A      0.708057  
      37A      0.746133    38A      0.747021    39A      0.758348  
      40A      0.774646    41A      0.847060    42A      0.889896  
      43A      0.906873    44A      0.966105    45A      0.984340  
      46A      1.039005    47A      1.074184    48A      1.087948  
      49A      1.132704    50A      1.163886    51A      1.173775  
      52A      1.187138    53A      1.195158    54A      1.201712  
      55A      1.213943    56A      1.224850    57A      1.232686  
      58A      1.262235    59A      1.334429    60A      1.344226  
      61A      1.481998    62A      1.589903    63A      1.652821  
      64A      1.711880    65A      1.732873    66A      1.798269  
      67A      1.860959    68A      1.954006    69A      2.062975  
      70A      2.079092    71A      2.119391    72A      2.225997  
      73A      2.234214    74A      2.271922    75A      2.329996  
      76A      2.342431    77A      2.377073    78A      2.488980  
      79A      2.509566    80A      2.597965    81A      2.640404  
      82A      2.663158    83A      2.732616    84A      2.775613  
      85A      2.824328    86A      2.883367    87A      2.913329  
      88A      3.020334    89A      3.152672    90A      3.249220  
      91A      4.204808    92A      4.574204    93A      4.691847  
      94A      4.802122    95A      4.948888  

    Final Occupation by Irrep:
              A 
    DOCC [    21 ]

  Energy converged.

  @DF-RHF Final Energy:  -232.14496828912394

   => Energetics <=

    Nuclear Repulsion Energy =            185.5565634652758149
    One-Electron Energy =                -682.2912611620607777
    Two-Electron Energy =                 264.5897294076610251
    Total Energy =                       -232.1449682891239377



Properties will be evaluated at   0.000000,   0.000000,   0.000000 [a0]

Properties computed using the SCF density matrix

  Nuclear Dipole Moment: [e a0]
     X:    -3.9733      Y:    -1.6136      Z:     4.2002

  Electronic Dipole Moment: [e a0]
     X:     3.9080      Y:     1.2210      Z:    -3.5879

  Dipole Moment: [e a0]
     X:    -0.0652      Y:    -0.3926      Z:     0.6123     Total:     0.7303

  Dipole Moment: [D]
     X:    -0.1658      Y:    -0.9980      Z:     1.5564     Total:     1.8563


*** tstop() called on wr86 at Thu Dec  6 15:25:45 2018
Module time:
	user time   =      11.46 seconds =       0.19 minutes
	system time =       0.28 seconds =       0.00 minutes
	total time  =          1 seconds =       0.02 minutes
Total time:
	user time   =      74.17 seconds =       1.24 minutes
	system time =       2.86 seconds =       0.05 minutes
	total time  =          6 seconds =       0.10 minutes

*** tstart() called on wr86
*** at Thu Dec  6 15:25:45 2018


         ------------------------------------------------------------
                                   SCF GRAD                          
                          Rob Parrish, Justin Turney,                
                       Andy Simmonett, and Alex Sokolov              
         ------------------------------------------------------------

  ==> Geometry <==

    Molecular point group: c1
    Full point group: C1

    Geometry (in Angstrom), charge = 0, multiplicity = 1:

       Center              X                  Y                   Z               Mass       
    ------------   -----------------  -----------------  -----------------  -----------------
         C           -1.112805901321    -0.620249090779     0.583635060365    12.000000000000
         H           -0.798869767310    -1.659494675816     0.656795320097     1.007825032070
         H           -1.852397766057    -0.580409103087    -0.213175973551     1.007825032070
         C           -1.764575596877    -0.195623367870     1.899050758202    12.000000000000
         H           -2.120724976762     0.829024458911     1.846298324342     1.007825032070
         H           -1.060164541707    -0.258262229855     2.723586029573     1.007825032070
         H           -2.612462982036    -0.829244172695     2.139334430359     1.007825032070
         C            0.739084202717    -0.172363902960    -1.104996788997    12.000000000000
         H            0.024282552718    -0.108227529223    -1.915835651281     1.007825032070
         H            1.066249733772    -1.209672098275    -1.045168238604     1.007825032070
         O            1.807089732428     0.662050074588    -1.470381711023    15.994914619560
         H            2.496065652938     0.591012258658    -0.824465577417     1.007825032070
         C            0.086342077361     0.250628730501     0.205278352677    12.000000000000
         H           -0.218255204175     1.290163143179     0.117938174566     1.007825032070
         H            0.828731121043     0.210462525968     1.002596513263     1.007825032070

  Nuclear repulsion =  185.556563465275815

  ==> Basis Set <==

  Basis Set: 6-31G(D)
    Blend: 6-31G(D)
    Number of shells: 50
    Number of basis function: 95
    Number of Cartesian functions: 95
    Spherical Harmonics?: false
    Max angular momentum: 2

  ==> DFJKGrad: Density-Fitted SCF Gradients <==

    Gradient:                    1
    J tasked:                  Yes
    K tasked:                  Yes
    wK tasked:                  No
    OpenMP threads:             16
    Integrals threads:          16
    Memory (MB):             71525
    Schwarz Cutoff:          0E+00
    Fitting Condition:       1E-12

   => Auxiliary Basis Set <=

  Basis Set: (6-31G(D) AUX)
    Blend: CC-PVDZ-JKFIT
    Number of shells: 210
    Number of basis function: 655
    Number of Cartesian functions: 655
    Spherical Harmonics?: false
    Max angular momentum: 3


  -Total Gradient:
     Atom            X                  Y                   Z
    ------   -----------------  -----------------  -----------------
       1        0.000001084868     0.000000438602    -0.000000981160
       2        0.000000080524     0.000000833118     0.000000525493
       3        0.000000010114     0.000000198098     0.000000706689
       4        0.000000195797     0.000000392743    -0.000000430715
       5        0.000000121162    -0.000000618477    -0.000000080460
       6       -0.000000347517    -0.000000236554    -0.000000613286
       7        0.000000372784     0.000000341199    -0.000000128888
       8        0.000003296447    -0.000000591666     0.000001604405
       9        0.000001699401     0.000001371831    -0.000000009671
      10       -0.000000514707     0.000000222878    -0.000000148284
      11       -0.000002099300    -0.000001377863     0.000000062128
      12       -0.000001358980     0.000000183975    -0.000001419076
      13       -0.000002136364     0.000000230593     0.000001243268
      14       -0.000000287684    -0.000000594821     0.000000323150
      15       -0.000000116547    -0.000000793656    -0.000000653588


*** tstop() called on wr86 at Thu Dec  6 15:25:46 2018
Module time:
	user time   =      16.15 seconds =       0.27 minutes
	system time =       0.63 seconds =       0.01 minutes
	total time  =          1 seconds =       0.02 minutes
Total time:
	user time   =      90.34 seconds =       1.51 minutes
	system time =       3.49 seconds =       0.06 minutes
	total time  =          7 seconds =       0.12 minutes

			-----------------------------------------
			 OPTKING 2.0: for geometry optimizations 
			  - R.A. King,  Bethel University        
			-----------------------------------------

	Previous internal coordinate definitions found.
	---Fragment 1 Geometry and Gradient---
	 C          -2.1028983926       -1.1721009157        1.1029104256
	 H          -1.5096450761       -3.1359904563        1.2411632803
	 H          -3.5005244670       -1.0968142499       -0.4028442081
	 C          -3.3345646189       -0.3696745905        3.5886858455
	 H          -4.0075894092        1.5666291848        3.4889981926
	 H          -2.0034206396       -0.4880448849        5.1468316952
	 H          -4.9368395683       -1.5670443837        4.0427561800
	 C           1.3966667323       -0.3257205718       -2.0881413089
	 H           0.0458873744       -0.2045203903       -3.6204046965
	 H           2.0149199861       -2.2859489763       -1.9750817338
	 O           3.4149046918        1.2510933272       -2.7786187446
	 H           4.7168804938        1.1168513100       -1.5580141473
	 C           0.1631628800        0.4736196617        0.3879198676
	 H          -0.4124425630        2.4380550074        0.2228708505
	 H           1.5660748566        0.3977165353        1.8946328319
	             0.0000010849        0.0000004386       -0.0000009812
	             0.0000000805        0.0000008331        0.0000005255
	             0.0000000101        0.0000001981        0.0000007067
	             0.0000001958        0.0000003927       -0.0000004307
	             0.0000001212       -0.0000006185       -0.0000000805
	            -0.0000003475       -0.0000002366       -0.0000006133
	             0.0000003728        0.0000003412       -0.0000001289
	             0.0000032964       -0.0000005917        0.0000016044
	             0.0000016994        0.0000013718       -0.0000000097
	            -0.0000005147        0.0000002229       -0.0000001483
	            -0.0000020993       -0.0000013779        0.0000000621
	            -0.0000013590        0.0000001840       -0.0000014191
	            -0.0000021364        0.0000002306        0.0000012433
	            -0.0000002877       -0.0000005948        0.0000003231
	            -0.0000001165       -0.0000007937       -0.0000006536

	---Fragment 1 Intrafragment Coordinates---
	 - Coordinate -           - BOHR/RAD -       - ANG/DEG -
	 R(1,2)           =         2.056192	       1.088090
	 R(1,3)           =         2.055802	       1.087884
	 R(1,4)           =         2.887900	       1.528211
	 R(1,13)          =         2.890440	       1.529555
	 R(4,5)           =         2.052358	       1.086061
[...]
	            -0.0000003808        0.0000003607       -0.0000004227
	            -0.0000000946        0.0000000734        0.0000001129
	             0.0000000535        0.0000000235       -0.0000000937
	             0.0000001240       -0.0000000848        0.0000001168
	            -0.0000002019       -0.0000000631       -0.0000000870
	             0.0000000401        0.0000001866       -0.0000000667
	             0.0000001344       -0.0000001049        0.0000000719
	            -0.0000001781       -0.0000002742        0.0000000379
	            -0.0000000171       -0.0000000474        0.0000000179
	             0.0000000074        0.0000001041        0.0000000593
	             0.0000001035        0.0000002091       -0.0000000192
	            -0.0000000008        0.0000000170       -0.0000000639
	             0.0000002748       -0.0000002043        0.0000002121
	            -0.0000000430       -0.0000001659        0.0000001791
	             0.0000001784       -0.0000000300       -0.0000000547

	---Fragment 1 Intrafragment Coordinates---
	 - Coordinate -           - BOHR/RAD -       - ANG/DEG -
	 R(1,2)           =         2.056194	       1.088091
	 R(1,3)           =         2.055804	       1.087885
	 R(1,4)           =         2.887903	       1.528213
	 R(1,13)          =         2.890446	       1.529558
	 R(4,5)           =         2.052359	       1.086062
	 R(4,6)           =         2.052750	       1.086268
	 R(4,7)           =         2.051137	       1.085415
	 R(8,9)           =         2.046249	       1.082828
	 R(8,10)          =         2.058523	       1.089324
	 R(8,11)          =         2.652627	       1.403710
	 R(8,13)          =         2.879470	       1.523750
	 R(11,12)         =         1.789706	       0.947072
	 R(13,14)         =         2.053673	       1.086757
	 R(13,15)         =         2.060124	       1.090171
	 B(1,4,5)         =         1.939274	     111.112218
	 B(1,4,6)         =         1.939891	     111.147540
	 B(1,4,7)         =         1.940681	     111.192813
	 B(1,13,8)        =         1.971967	     112.985394
	 B(1,13,14)       =         1.922792	     110.167843
	 B(1,13,15)       =         1.909210	     109.389666
	 B(2,1,3)         =         1.854976	     106.282283
	 B(2,1,4)         =         1.907696	     109.302941
	 B(2,1,13)        =         1.911598	     109.526518
	 B(3,1,4)         =         1.907452	     109.288973
	 B(3,1,13)        =         1.908112	     109.326774
	 B(4,1,13)        =         1.970431	     112.897377
	 B(5,4,6)         =         1.879603	     107.693306
	 B(5,4,7)         =         1.881089	     107.778464
	 B(6,4,7)         =         1.880592	     107.750003
	 B(8,11,12)       =         1.908563	     109.352609
	 B(8,13,14)       =         1.892827	     108.450990
	 B(8,13,15)       =         1.903883	     109.084449
	 B(9,8,10)        =         1.871077	     107.204841
	 B(9,8,11)        =         1.846417	     105.791927
	 B(9,8,13)        =         1.922699	     110.162563
	 B(10,8,11)       =         1.930323	     110.599339
	 B(10,8,13)       =         1.923859	     110.229020
	 B(11,8,13)       =         1.965722	     112.627595
	 B(14,13,15)      =         1.859682	     106.551904
	 D(1,13,8,9)      =         1.045770	      59.918228
	 D(1,13,8,10)     =        -1.015588	     -58.188900
	 D(1,13,8,11)     =         3.102620	     177.767059
	 D(2,1,4,5)       =        -3.107163	    -178.027299
	 D(2,1,4,6)       =         1.083161	      62.060566
	 D(2,1,4,7)       =        -1.011893	     -57.977223
	 D(2,1,13,8)      =         1.010039	      57.870951
	 D(2,1,13,14)     =         3.130076	     179.340122
	 D(2,1,13,15)     =        -1.114417	     -63.851412
	 D(3,1,4,5)       =        -1.083751	     -62.094351
	 D(3,1,4,6)       =         3.106573	     177.993514
	 D(3,1,4,7)       =         1.011518	      57.955725
	 D(3,1,13,8)      =        -1.015937	     -58.208880
	 D(3,1,13,14)     =         1.104100	      63.260291
	 D(3,1,13,15)     =        -3.140393	    -179.931243
	 D(4,1,13,8)      =         3.140051	     179.911672
	 D(4,1,13,14)     =        -1.023097	     -58.619157
	 D(4,1,13,15)     =         1.015595	      58.189309
	 D(5,4,1,13)      =         1.043818	      59.806381
	 D(6,4,1,13)      =        -1.049043	     -60.105754
	 D(7,4,1,13)      =         3.139087	     179.856457
	 D(9,8,11,12)     =        -3.064554	    -175.585992
	 D(9,8,13,14)     =        -1.091101	     -62.515492
	 D(9,8,13,15)     =        -3.109962	    -178.187681
	 D(10,8,11,12)    =        -1.044066	     -59.820566
	 D(10,8,13,14)    =         3.130726	     179.377379
	 D(10,8,13,15)    =         1.111865	      63.705190
	 D(11,8,13,14)    =         0.965749	      55.333339
	 D(11,8,13,15)    =        -1.053112	     -60.338851
	 D(12,11,8,13)    =         1.117337	      64.018691

	Current energy   :      -232.1449682892

	Energy change for the previous step:
		Projected    :        -0.0000000002
		Actual       :        -0.0000000002

	Performing BFGS update.
	Previous computed or guess Hessian on step 1.
	Denominators (dg)(dq) or (dq)(dq) are very small.
	 Skipping Hessian update for step 23.
	Denominators (dg)(dq) or (dq)(dq) are very small.
	 Skipping Hessian update for step 22.
	Denominators (dg)(dq) or (dq)(dq) are very small.
	 Skipping Hessian update for step 21.
	Denominators (dg)(dq) or (dq)(dq) are very small.
	 Skipping Hessian update for step 20.
	Denominators (dg)(dq) or (dq)(dq) are very small.
	 Skipping Hessian update for step 19.
	Denominators (dg)(dq) or (dq)(dq) are very small.
	 Skipping Hessian update for step 18.
	Denominators (dg)(dq) or (dq)(dq) are very small.
	 Skipping Hessian update for step 17.
	Denominators (dg)(dq) or (dq)(dq) are very small.
	 Skipping Hessian update for step 16.
	Denominators (dg)(dq) or (dq)(dq) are very small.
	 Skipping Hessian update for step 15.
	Denominators (dg)(dq) or (dq)(dq) are very small.
	 Skipping Hessian update for step 14.
	Denominators (dg)(dq) or (dq)(dq) are very small.
	 Skipping Hessian update for step 13.
	Denominators (dg)(dq) or (dq)(dq) are very small.
	 Skipping Hessian update for step 12.
	Denominators (dg)(dq) or (dq)(dq) are very small.
	 Skipping Hessian update for step 11.
	Denominators (dg)(dq) or (dq)(dq) are very small.
	 Skipping Hessian update for step 10.
	Denominators (dg)(dq) or (dq)(dq) are very small.
	 Skipping Hessian update for step 9.
	Denominators (dg)(dq) or (dq)(dq) are very small.
	 Skipping Hessian update for step 8.
	Denominators (dg)(dq) or (dq)(dq) are very small.
	 Skipping Hessian update for step 7.
	Denominators (dg)(dq) or (dq)(dq) are very small.
	 Skipping Hessian update for step 6.
	Denominators (dg)(dq) or (dq)(dq) are very small.
	 Skipping Hessian update for step 5.
	Denominators (dg)(dq) or (dq)(dq) are very small.
	 Skipping Hessian update for step 4.
	Denominators (dg)(dq) or (dq)(dq) are very small.
	 Skipping Hessian update for step 3.
	Denominators (dg)(dq) or (dq)(dq) are very small.
	 Skipping Hessian update for step 2.
	Steps to be used in Hessian update: 1
	Taking RFO optimization step.
	Going to follow RFO solution 1.
	Using RFO vector 1.
	Norm of target step-size    0.00032
	Projected energy change by RFO approximation:        -0.0000000002

	Back-transformation to cartesian coordinates...
	Successfully converged to displaced geometry.

	--- Internal Coordinate Step in ANG or DEG, aJ/ANG or AJ/DEG ---
	 ---------------------------------------------------------------------------
	   Coordinate                Previous        Force       Change         New 
	   ----------                --------       ------       ------       ------
	    1 R(1,2)          =      1.088091     0.000001     0.000000     1.088091
	    2 R(1,3)          =      1.087885    -0.000000    -0.000000     1.087885
	    3 R(1,4)          =      1.528213     0.000000     0.000000     1.528213
	    4 R(1,13)         =      1.529558     0.000000     0.000000     1.529558
	    5 R(4,5)          =      1.086062    -0.000000    -0.000000     1.086062
	    6 R(4,6)          =      1.086268     0.000000     0.000000     1.086268
	    7 R(4,7)          =      1.085415     0.000000     0.000000     1.085415
	    8 R(8,9)          =      1.082828     0.000000    -0.000000     1.082828
	    9 R(8,10)         =      1.089324     0.000001     0.000000     1.089324
	   10 R(8,11)         =      1.403710    -0.000002    -0.000000     1.403709
	   11 R(8,13)         =      1.523750     0.000001     0.000000     1.523750
	   12 R(11,12)        =      0.947072     0.000000     0.000000     0.947072
	   13 R(13,14)        =      1.086757     0.000001     0.000000     1.086757
	   14 R(13,15)        =      1.090171    -0.000001    -0.000000     1.090171
	   15 B(1,4,5)        =    111.112218     0.000000     0.000005   111.112223
	   16 B(1,4,6)        =    111.147540     0.000000    -0.000006   111.147534
	   17 B(1,4,7)        =    111.192813     0.000000     0.000006   111.192819
	   18 B(1,13,8)       =    112.985394     0.000000     0.000011   112.985406
	   19 B(1,13,14)      =    110.167843     0.000000     0.000121   110.167965
	   20 B(1,13,15)      =    109.389666    -0.000000    -0.000125   109.389541
	   21 B(2,1,3)        =    106.282283    -0.000000    -0.000005   106.282278
	   22 B(2,1,4)        =    109.302941     0.000000     0.000084   109.303025
	   23 B(2,1,13)       =    109.526518     0.000000     0.000087   109.526605
	   24 B(3,1,4)        =    109.288973    -0.000000    -0.000080   109.288893
	   25 B(3,1,13)       =    109.326774    -0.000000    -0.000090   109.326684
	   26 B(4,1,13)       =    112.897377     0.000000     0.000002   112.897379
	   27 B(5,4,6)        =    107.693306    -0.000000    -0.000007   107.693299
	   28 B(5,4,7)        =    107.778464    -0.000000     0.000009   107.778474
	   29 B(6,4,7)        =    107.750003    -0.000000    -0.000007   107.749996
	   30 B(8,11,12)      =    109.352609    -0.000000    -0.000011   109.352598
	   31 B(8,13,14)      =    108.450990    -0.000000    -0.000003   108.450986
	   32 B(8,13,15)      =    109.084449     0.000000    -0.000013   109.084436
	   33 B(9,8,10)       =    107.204841    -0.000000    -0.000006   107.204835
	   34 B(9,8,11)       =    105.791927     0.000000     0.000007   105.791934
	   35 B(9,8,13)       =    110.162563     0.000000     0.000002   110.162565
	   36 B(10,8,11)      =    110.599339    -0.000000    -0.000022   110.599317
	   37 B(10,8,13)      =    110.229020     0.000000     0.000007   110.229027
	   38 B(11,8,13)      =    112.627595     0.000000     0.000011   112.627606
	   39 B(14,13,15)     =    106.551904     0.000000     0.000009   106.551913
	   40 D(1,13,8,9)     =     59.918228     0.000000     0.001699    59.919927
	   41 D(1,13,8,10)    =    -58.188900     0.000000     0.001700   -58.187200
	   42 D(1,13,8,11)    =    177.767059     0.000000     0.001715   177.768774
	   43 D(2,1,4,5)      =   -178.027299    -0.000000    -0.005382  -178.032681
	   44 D(2,1,4,6)      =     62.060566    -0.000000    -0.005372    62.055194
	   45 D(2,1,4,7)      =    -57.977223    -0.000000    -0.005363   -57.982586
	   46 D(2,1,13,8)     =     57.870951    -0.000000    -0.002631    57.868320
	   47 D(2,1,13,14)    =    179.340122    -0.000000    -0.002540   179.337582
	   48 D(2,1,13,15)    =    -63.851412    -0.000000    -0.002533   -63.853945
	   49 D(3,1,4,5)      =    -62.094351    -0.000000    -0.005385   -62.099736
	   50 D(3,1,4,6)      =    177.993514    -0.000000    -0.005375   177.988138
	   51 D(3,1,4,7)      =     57.955725    -0.000000    -0.005366    57.950359
	   52 D(3,1,13,8)     =    -58.208880    -0.000000    -0.002624   -58.211504
	   53 D(3,1,13,14)    =     63.260291    -0.000000    -0.002533    63.257758
	   54 D(3,1,13,15)    =   -179.931243    -0.000000    -0.002526  -179.933769
	   55 D(4,1,13,8)     =    179.911672     0.000000    -0.002459   179.909214
	   56 D(4,1,13,14)    =    -58.619157     0.000000    -0.002367   -58.621524
	   57 D(4,1,13,15)    =     58.189309     0.000000    -0.002360    58.186949
	   58 D(5,4,1,13)     =     59.806381    -0.000000    -0.005556    59.800826
	   59 D(6,4,1,13)     =    -60.105754    -0.000000    -0.005546   -60.111300
	   60 D(7,4,1,13)     =    179.856457    -0.000000    -0.005537   179.850920
	   61 D(9,8,11,12)    =   -175.585992     0.000000    -0.000096  -175.586088
	   62 D(9,8,13,14)    =    -62.515492    -0.000000     0.001539   -62.513953
	   63 D(9,8,13,15)    =   -178.187681    -0.000000     0.001537  -178.186144
	   64 D(10,8,11,12)   =    -59.820566    -0.000000    -0.000109   -59.820676
	   65 D(10,8,13,14)   =    179.377379    -0.000000     0.001540   179.378920
	   66 D(10,8,13,15)   =     63.705190    -0.000000     0.001539    63.706728
	   67 D(11,8,13,14)   =     55.333339     0.000000     0.001556    55.334894
	   68 D(11,8,13,15)   =    -60.338851     0.000000     0.001554   -60.337297
	   69 D(12,11,8,13)   =     64.018691    -0.000000    -0.000109    64.018582
	 ---------------------------------------------------------------------------
	Successfully symmetrized geometry.

  ==> Convergence Check <==

  Measures of convergence in internal coordinates in au.
  Criteria marked as inactive (o), active & met (*), and active & unmet ( ).
  ---------------------------------------------------------------------------------------------
   Step     Total Energy     Delta E     MAX Force     RMS Force      MAX Disp      RMS Disp   
  ---------------------------------------------------------------------------------------------
    Convergence Criteria             o    1.50e-05 *    1.00e-05 *    6.00e-05 *    4.00e-05 *
  ---------------------------------------------------------------------------------------------
     24    -232.14496829   -1.63e-10 o    2.35e-07 *    9.15e-08 *    9.70e-05      3.90e-05 *  ~
  ---------------------------------------------------------------------------------------------


  **** Optimization is complete! (in 24 steps) ****

  ==> Optimization Summary <==

  Measures of convergence in internal coordinates in au.
  --------------------------------------------------------------------------------------------------------------- ~
   Step         Total Energy             Delta E       MAX Force       RMS Force        MAX Disp        RMS Disp  ~
  --------------------------------------------------------------------------------------------------------------- ~
      1    -232.144968277079   -232.144968277079      0.00006468      0.00000999      0.00025210      0.00007059  ~
      2    -232.144968287824     -0.000000010745      0.00001376      0.00000268      0.00011329      0.00004302  ~
      3    -232.144968289124     -0.000000001300      0.00000299      0.00000076      0.00010398      0.00004498  ~
      4    -232.144968289241     -0.000000000117      0.00000122      0.00000034      0.00018540      0.00007509  ~
      5    -232.144968288854      0.000000000387      0.00000086      0.00000031      0.00031340      0.00012386  ~
      6    -232.144968288267      0.000000000588      0.00000186      0.00000044      0.00046543      0.00018241  ~
      7    -232.144968288144      0.000000000123      0.00000478      0.00000085      0.00053485      0.00021069  ~
      8    -232.144968287993      0.000000000151      0.00000569      0.00000098      0.00044836      0.00017955  ~
      9    -232.144968288718     -0.000000000725      0.00000425      0.00000074      0.00028792      0.00011988  ~
     10    -232.144968289066     -0.000000000348      0.00000175      0.00000035      0.00015695      0.00007376  ~
     11    -232.144968289238     -0.000000000173      0.00000073      0.00000021      0.00012084      0.00005001  ~
     12    -232.144968289003      0.000000000236      0.00000037      0.00000015      0.00011194      0.00004202  ~
     13    -232.144968288918      0.000000000085      0.00000035      0.00000013      0.00011169      0.00004200  ~
     14    -232.144968289431     -0.000000000513      0.00000036      0.00000013      0.00011650      0.00004489  ~
     15    -232.144968289104      0.000000000327      0.00000037      0.00000013      0.00012347      0.00004849  ~
     16    -232.144968289064      0.000000000040      0.00000036      0.00000014      0.00013017      0.00005170  ~
     17    -232.144968289131     -0.000000000067      0.00000036      0.00000014      0.00013530      0.00005405  ~
     18    -232.144968289132     -0.000000000000      0.00000038      0.00000014      0.00013773      0.00005522  ~
     19    -232.144968289410     -0.000000000279      0.00000037      0.00000013      0.00013704      0.00005505  ~
     20    -232.144968289216      0.000000000195      0.00000039      0.00000013      0.00013310      0.00005352  ~
     21    -232.144968289271     -0.000000000056      0.00000034      0.00000012      0.00012626      0.00005081  ~
     22    -232.144968289464     -0.000000000193      0.00000033      0.00000011      0.00011757      0.00004733  ~
     23    -232.144968289034      0.000000000431      0.00000027      0.00000010      0.00010754      0.00004331  ~
     24    -232.144968289196     -0.000000000163      0.00000024      0.00000009      0.00009696      0.00003905  ~
  --------------------------------------------------------------------------------------------------------------- ~

	Writing optimization data to binary file.
	Final energy is   -232.1449682891964
	Final (previous) structure:
	Cartesian Geometry (in Angstrom)
	    C    -1.1128125170  -0.6202267983   0.5836515979
	    H    -0.7988872255  -1.6594768096   0.6568102373
	    H    -1.8524163758  -0.5803850963  -0.2131493063
	    C    -1.7645536671  -0.1955859852   1.8990782114
	    H    -2.1207441739   0.8290475191   1.8463072400
	    H    -1.0601114028  -0.2581713116   2.7235920187
	    H    -2.6124087806  -0.8292326869   2.1394102226
	    C     0.7390614295  -0.1723795033  -1.1050134684
	    H     0.0242536809  -0.1082353240  -1.9158477165
	    H     1.0662056256  -1.2096945955  -1.0451803102
	    O     1.8070950889   0.6620067490  -1.4703955438
	    H     2.4960670965   0.5909417663  -0.8244759204
	    C     0.0863421980   0.2506348926   0.2052650537
	    H    -0.2182442348   1.2901723873   0.1179150325
	    H     0.8287419795   0.2104761745   1.0025745476
	Saving final (previous) structure.
	Removing binary optimization data file.
			--------------------------
			 OPTKING Finished Execution 
			--------------------------

    Final optimized geometry and variables:
    Molecular point group: c1
    Full point group: C1

    Geometry (in Angstrom), charge = 0, multiplicity = 1:

    C           -1.112812516963    -0.620226798266     0.583651597878
    H           -0.798887225492    -1.659476809617     0.656810237316
    H           -1.852416375753    -0.580385096333    -0.213149306258
    C           -1.764553667056    -0.195585985165     1.899078211381
    H           -2.120744173907     0.829047519097     1.846307240009
    H           -1.060111402845    -0.258171311576     2.723592018685
    H           -2.612408780580    -0.829232686866     2.139410222568
    C            0.739061429462    -0.172379503346    -1.105013468363
    H            0.024253680881    -0.108235324034    -1.915847716530
    H            1.066205625558    -1.209694595461    -1.045180310239
    O            1.807095088879     0.662006749014    -1.470395543799
    H            2.496067096484     0.590941766335    -0.824475920427
    C            0.086342198013     0.250634892610     0.205265053676
    H           -0.218244234791     1.290172387335     0.117915032456
    H            0.828741979466     0.210476174540     1.002574547624

	Removing binary optimization data file.
	Cleaning optimization helper files.

    Psi4 stopped on: Thursday, 06 December 2018 03:26PM
    Psi4 wall time for execution: 0:00:48.61

*** Psi4 exiting successfully. Buy a developer a beer!
