
    -----------------------------------------------------------------------
          Psi4: An Open-Source Ab Initio Electronic Structure Package
                               Psi4 1.2.1 release

                         Git: Rev {HEAD} 406f4de 


    R. M. Parrish, L. A. Burns, D. G. A. Smith, A. C. Simmonett,
    A. E. DePrince III, E. G. Hohenstein, U. Bozkaya, A. Yu. Sokolov,
    R. Di Remigio, R. M. Richard, J. F. Gonthier, A. M. James,
    H. R. McAlexander, A. Kumar, M. Saitow, X. Wang, B. P. Pritchard,
    P. Verma, H. F. Schaefer III, K. Patkowski, R. A. King, E. F. Valeev,
    F. A. Evangelista, J. M. Turney, T. D. Crawford, and C. D. Sherrill,
    J. Chem. Theory Comput. 13(7) pp 3185--3197 (2017).
    (doi: 10.1021/acs.jctc.7b00174)


                         Additional Contributions by
    P. Kraus, H. Kruse, M. H. Lechner, M. C. Schieber, and R. A. Shaw

    -----------------------------------------------------------------------


    Psi4 started on: Thursday, 06 December 2018 04:06PM

    Process ID: 225684
    Host:       wr86
    PSIDATADIR: /usr/local/hpc1/software_molmod/psi4/psi4conda/share/psi4
    Memory:     500.0 MiB
    Threads:    16
    
  ==> Input File <==

--------------------------------------------------------------------------
memory 100 Gb

molecule conf_02 {
0 1
  C    -1.112812516963    -0.620226798266     0.583651597878
  H    -0.798887225492    -1.659476809617     0.656810237316
  H    -1.852416375753    -0.580385096333    -0.213149306258
  C    -1.764553667056    -0.195585985165     1.899078211381
  H    -2.120744173907     0.829047519097     1.846307240009
  H    -1.060111402845    -0.258171311576     2.723592018685
  H    -2.612408780580    -0.829232686866     2.139410222568
  C     0.739061429462    -0.172379503346    -1.105013468363
  H     0.024253680881    -0.108235324034    -1.915847716530
  H     1.066205625558    -1.209694595461    -1.045180310239
  O     1.807095088879     0.662006749014    -1.470395543799
  H     2.496067096484     0.590941766335    -0.824475920427
  C     0.086342198013     0.250634892610     0.205265053676
  H    -0.218244234791     1.290172387335     0.117915032456
  H     0.828741979466     0.210476174540     1.002574547624
}
set globals {
  reference rhf
  basis 6-31G(d)
}
frequency('scf', dertype=1)

--------------------------------------------------------------------------

  Memory set to  93.132 GiB by Python driver.
gradient() will perform analytic gradient computation.

*** tstart() called on wr86
*** at Thu Dec  6 16:06:29 2018

   => Loading Basis Set <=

    Name: 6-31G(D)
    Role: ORBITAL
    Keyword: BASIS
    atoms 1, 4, 8, 13               entry C          line   111 file /usr/local/hpc1/software_molmod/psi4/psi4conda/share/psi4/basis/6-31g_d_.gbs 
    atoms 2-3, 5-7, 9-10, 12, 14-15 entry H          line    44 file /usr/local/hpc1/software_molmod/psi4/psi4conda/share/psi4/basis/6-31g_d_.gbs 
    atoms 11                        entry O          line   145 file /usr/local/hpc1/software_molmod/psi4/psi4conda/share/psi4/basis/6-31g_d_.gbs 


         ---------------------------------------------------------
                                   SCF
            by Justin Turney, Rob Parrish, Andy Simmonett
                             and Daniel Smith
                              RHF Reference
                       16 Threads,  95367 MiB Core
         ---------------------------------------------------------

  ==> Geometry <==

    Molecular point group: c1
    Full point group: C1

    Geometry (in Angstrom), charge = 0, multiplicity = 1:

       Center              X                  Y                   Z               Mass       
    ------------   -----------------  -----------------  -----------------  -----------------
         C           -1.112812516963    -0.620226798266     0.583651597878    12.000000000000
         H           -0.798887225492    -1.659476809617     0.656810237316     1.007825032070
         H           -1.852416375753    -0.580385096333    -0.213149306258     1.007825032070
         C           -1.764553667056    -0.195585985165     1.899078211381    12.000000000000
         H           -2.120744173907     0.829047519097     1.846307240009     1.007825032070
         H           -1.060111402845    -0.258171311576     2.723592018685     1.007825032070
         H           -2.612408780580    -0.829232686866     2.139410222568     1.007825032070
         C            0.739061429462    -0.172379503346    -1.105013468363    12.000000000000
         H            0.024253680881    -0.108235324034    -1.915847716530     1.007825032070
         H            1.066205625558    -1.209694595461    -1.045180310239     1.007825032070
         O            1.807095088879     0.662006749014    -1.470395543799    15.994914619560
         H            2.496067096484     0.590941766335    -0.824475920427     1.007825032070
         C            0.086342198013     0.250634892610     0.205265053676    12.000000000000
         H           -0.218244234791     1.290172387335     0.117915032456     1.007825032070
         H            0.828741979466     0.210476174540     1.002574547624     1.007825032070

  Running in c1 symmetry.

  Rotational constants: A =      0.62843  B =      0.06566  C =      0.06241 [cm^-1]
  Rotational constants: A =  18839.72708  B =   1968.29382  C =   1870.85734 [MHz]
  Nuclear repulsion =  185.556379771010796

  Charge       = 0
  Multiplicity = 1
  Electrons    = 42
  Nalpha       = 21
  Nbeta        = 21

  ==> Algorithm <==

  SCF Algorithm Type is DF.
  DIIS enabled.
  MOM disabled.
  Fractional occupation disabled.
  Guess Type is SAD.
  Energy threshold   = 1.00e-08
  Density threshold  = 1.00e-08
  Integral threshold = 0.00e+00

  ==> Primary Basis <==

  Basis Set: 6-31G(D)
    Blend: 6-31G(D)
    Number of shells: 50
    Number of basis function: 95
    Number of Cartesian functions: 95
    Spherical Harmonics?: false
    Max angular momentum: 2

   => Loading Basis Set <=

    Name: (6-31G(D) AUX)
    Role: JKFIT
    Keyword: DF_BASIS_SCF
    atoms 1, 4, 8, 13               entry C          line   121 file /usr/local/hpc1/software_molmod/psi4/psi4conda/share/psi4/basis/cc-pvdz-jkfit.gbs 
    atoms 2-3, 5-7, 9-10, 12, 14-15 entry H          line    51 file /usr/local/hpc1/software_molmod/psi4/psi4conda/share/psi4/basis/cc-pvdz-jkfit.gbs 
    atoms 11                        entry O          line   221 file /usr/local/hpc1/software_molmod/psi4/psi4conda/share/psi4/basis/cc-pvdz-jkfit.gbs 

  ==> Pre-Iterations <==

   -------------------------------------------------------
    Irrep   Nso     Nmo     Nalpha   Nbeta   Ndocc  Nsocc
   -------------------------------------------------------
     A         95      95       0       0       0       0
   -------------------------------------------------------
    Total      95      95      21      21      21       0
   -------------------------------------------------------

  ==> Integral Setup <==

  ==> DiskDFJK: Density-Fitted J/K Matrices <==

    J tasked:                  Yes
    K tasked:                  Yes
    wK tasked:                  No
    OpenMP threads:             16
    Integrals threads:          16
    Memory (MB):             71525
    Algorithm:                Core
    Integral Cache:           NONE
    Schwarz Cutoff:          1E-12
    Fitting Condition:       1E-12

   => Auxiliary Basis Set <=

  Basis Set: (6-31G(D) AUX)
    Blend: CC-PVDZ-JKFIT
    Number of shells: 210
    Number of basis function: 655
    Number of Cartesian functions: 655
    Spherical Harmonics?: false
    Max angular momentum: 3

  Minimum eigenvalue in the overlap matrix is 3.6727233700E-03.
  Using Symmetric Orthogonalization.

  SCF Guess: Superposition of Atomic Densities via on-the-fly atomic UHF.

  ==> Iterations <==

                           Total Energy        Delta E     RMS |[F,P]|

   @DF-RHF iter   0:  -233.81801225052902   -2.33818e+02   1.68773e-01 
   @DF-RHF iter   1:  -232.02153217236744    1.79648e+00   1.55732e-02 
   @DF-RHF iter   2:  -232.13206115113769   -1.10529e-01   3.04165e-03 DIIS
   @DF-RHF iter   3:  -232.14307825464431   -1.10171e-02   1.27126e-03 DIIS
   @DF-RHF iter   4:  -232.14485211462434   -1.77386e-03   3.00219e-04 DIIS
   @DF-RHF iter   5:  -232.14495422809901   -1.02113e-04   1.55775e-04 DIIS
   @DF-RHF iter   6:  -232.14496634306812   -1.21150e-05   3.07958e-05 DIIS
   @DF-RHF iter   7:  -232.14496811860619   -1.77554e-06   1.08537e-05 DIIS
   @DF-RHF iter   8:  -232.14496827459226   -1.55986e-07   3.05320e-06 DIIS
   @DF-RHF iter   9:  -232.14496828825821   -1.36660e-08   9.22802e-07 DIIS
   @DF-RHF iter  10:  -232.14496828922796   -9.69749e-10   1.70016e-07 DIIS
   @DF-RHF iter  11:  -232.14496828927352   -4.55600e-11   4.07037e-08 DIIS
   @DF-RHF iter  12:  -232.14496828927682   -3.29692e-12   2.11964e-08 DIIS
   @DF-RHF iter  13:  -232.14496828927753   -7.10543e-13   4.40982e-09 DIIS

  ==> Post-Iterations <==

    Orbital Energies [Eh]
    ---------------------

    Doubly Occupied:                                                      

       1A    -20.552585     2A    -11.267266     3A    -11.222533  
       4A    -11.217183     5A    -11.213463     6A     -1.359543  
       7A     -1.073530     8A     -0.975589     9A     -0.863175  
      10A     -0.804201    11A     -0.693052    12A     -0.641314  
      13A     -0.611799    14A     -0.599361    15A     -0.552943  
      16A     -0.541628    17A     -0.515235    18A     -0.481720  
      19A     -0.477498    20A     -0.465764    21A     -0.426519  

    Virtual:                                                              

      22A      0.223465    23A      0.236259    24A      0.269984  
      25A      0.279955    26A      0.296636    27A      0.320554  
      28A      0.334962    29A      0.341603    30A      0.347890  
      31A      0.357164    32A      0.386825    33A      0.422210  
      34A      0.450773    35A      0.476731    36A      0.708057  
      37A      0.746132    38A      0.747020    39A      0.758348  
      40A      0.774646    41A      0.847059    42A      0.889896  
      43A      0.906872    44A      0.966105    45A      0.984339  
      46A      1.039006    47A      1.074182    48A      1.087947  
      49A      1.132704    50A      1.163884    51A      1.173776  
      52A      1.187136    53A      1.195158    54A      1.201712  
      55A      1.213942    56A      1.224849    57A      1.232685  
      58A      1.262234    59A      1.334428    60A      1.344224  
      61A      1.481998    62A      1.589904    63A      1.652818  
      64A      1.711880    65A      1.732871    66A      1.798270  
      67A      1.860958    68A      1.954004    69A      2.062977  
      70A      2.079089    71A      2.119391    72A      2.225996  
      73A      2.234211    74A      2.271919    75A      2.329993  
      76A      2.342431    77A      2.377070    78A      2.488976  
      79A      2.509563    80A      2.597963    81A      2.640407  
      82A      2.663152    83A      2.732615    84A      2.775614  
      85A      2.824323    86A      2.883360    87A      2.913328  
      88A      3.020332    89A      3.152668    90A      3.249218  
      91A      4.204804    92A      4.574201    93A      4.691846  
      94A      4.802121    95A      4.948887  

    Final Occupation by Irrep:
              A 
    DOCC [    21 ]

  Energy converged.

  @DF-RHF Final Energy:  -232.14496828927753

   => Energetics <=

    Nuclear Repulsion Energy =            185.5563797710107963
    One-Electron Energy =                -682.2908995131383563
    Two-Electron Energy =                 264.5895514528500030
    Total Energy =                       -232.1449682892775286



Properties will be evaluated at   0.000000,   0.000000,   0.000000 [a0]

Properties computed using the SCF density matrix

  Nuclear Dipole Moment: [e a0]
     X:    -3.9733      Y:    -1.6135      Z:     4.2003

  Electronic Dipole Moment: [e a0]
     X:     3.9080      Y:     1.2209      Z:    -3.5879

  Dipole Moment: [e a0]
     X:    -0.0653      Y:    -0.3926      Z:     0.6123     Total:     0.7303

  Dipole Moment: [D]
     X:    -0.1659      Y:    -0.9980      Z:     1.5564     Total:     1.8563


*** tstop() called on wr86 at Thu Dec  6 16:06:31 2018
Module time:
	user time   =      21.59 seconds =       0.36 minutes
	system time =       0.97 seconds =       0.02 minutes
	total time  =          2 seconds =       0.03 minutes
Total time:
	user time   =      21.59 seconds =       0.36 minutes
	system time =       0.97 seconds =       0.02 minutes
	total time  =          2 seconds =       0.03 minutes

*** tstart() called on wr86
*** at Thu Dec  6 16:06:31 2018


         ------------------------------------------------------------
                                   SCF GRAD                          
                          Rob Parrish, Justin Turney,                
                       Andy Simmonett, and Alex Sokolov              
         ------------------------------------------------------------

  ==> Geometry <==

    Molecular point group: c1
    Full point group: C1

    Geometry (in Angstrom), charge = 0, multiplicity = 1:

       Center              X                  Y                   Z               Mass       
    ------------   -----------------  -----------------  -----------------  -----------------
         C           -1.112812516963    -0.620226798266     0.583651597878    12.000000000000
         H           -0.798887225492    -1.659476809617     0.656810237316     1.007825032070
         H           -1.852416375753    -0.580385096333    -0.213149306258     1.007825032070
         C           -1.764553667056    -0.195585985165     1.899078211381    12.000000000000
         H           -2.120744173907     0.829047519097     1.846307240009     1.007825032070
         H           -1.060111402845    -0.258171311576     2.723592018685     1.007825032070
         H           -2.612408780580    -0.829232686866     2.139410222568     1.007825032070
         C            0.739061429462    -0.172379503346    -1.105013468363    12.000000000000
         H            0.024253680881    -0.108235324034    -1.915847716530     1.007825032070
         H            1.066205625558    -1.209694595461    -1.045180310239     1.007825032070
         O            1.807095088879     0.662006749014    -1.470395543799    15.994914619560
         H            2.496067096484     0.590941766335    -0.824475920427     1.007825032070
         C            0.086342198013     0.250634892610     0.205265053676    12.000000000000
         H           -0.218244234791     1.290172387335     0.117915032456     1.007825032070
         H            0.828741979466     0.210476174540     1.002574547624     1.007825032070

  Nuclear repulsion =  185.556379771010796

  ==> Basis Set <==

  Basis Set: 6-31G(D)
    Blend: 6-31G(D)
    Number of shells: 50
    Number of basis function: 95
    Number of Cartesian functions: 95
    Spherical Harmonics?: false
    Max angular momentum: 2

  ==> DFJKGrad: Density-Fitted SCF Gradients <==

    Gradient:                    1
    J tasked:                  Yes
    K tasked:                  Yes
    wK tasked:                  No
    OpenMP threads:             16
    Integrals threads:          16
    Memory (MB):             71525
    Schwarz Cutoff:          0E+00
    Fitting Condition:       1E-12

   => Auxiliary Basis Set <=

  Basis Set: (6-31G(D) AUX)
    Blend: CC-PVDZ-JKFIT
    Number of shells: 210
    Number of basis function: 655
    Number of Cartesian functions: 655
    Spherical Harmonics?: false
    Max angular momentum: 3


  -Total Gradient:
     Atom            X                  Y                   Z
    ------   -----------------  -----------------  -----------------
       1       -0.000000384532     0.000000358547    -0.000000420150
       2       -0.000000095321     0.000000072637     0.000000112637
       3        0.000000053926     0.000000023033    -0.000000095049
       4        0.000000119318    -0.000000077707     0.000000122737
       5       -0.000000200052    -0.000000069856    -0.000000088045
       6        0.000000038742     0.000000186919    -0.000000070611
       7        0.000000138602    -0.000000103475     0.000000070553
       8       -0.000000170757    -0.000000274731     0.000000032913
       9       -0.000000017878    -0.000000047706     0.000000019708
      10        0.000000005260     0.000000103984     0.000000060026
      11        0.000000113025     0.000000194391    -0.000000028715
      12       -0.000000013327     0.000000034127    -0.000000054345
      13        0.000000276900    -0.000000196740     0.000000214244
      14       -0.000000041595    -0.000000171348     0.000000179813
      15        0.000000177685    -0.000000032075    -0.000000055712


*** tstop() called on wr86 at Thu Dec  6 16:06:33 2018
Module time:
	user time   =      17.54 seconds =       0.29 minutes
	system time =       0.77 seconds =       0.01 minutes
	total time  =          2 seconds =       0.03 minutes
Total time:
	user time   =      39.15 seconds =       0.65 minutes
	system time =       1.75 seconds =       0.03 minutes
	total time  =          4 seconds =       0.07 minutes

  Based on options and gradient (rms=2.47E-07), recommend projecting translations and projecting rotations.
hessian() will perform frequency computation by finite difference of analytic gradients.

-------------------------------------------------------------

  Using finite-differences of gradients to determine vibrational frequencies and 
  normal modes.  Resulting frequencies are only valid at stationary points.
	Generating geometries for use with 3-point formula.
	Displacement size will be 5.00e-03.
	Number of atoms is 15.
	Number of irreps is 1.
	Number of SALCS is 39.
	Translations projected? 1. Rotations projected? 1.
	Index of salcs per irrep:
	 1 :  0  1  2  3  4  5  6  7  8  9  10  11  12  13  14  15  16  17  18  19  20  21  22  23  24  25  26  27  28  29  30  31  32  33  34  35  36  37  38 
	Number of SALC's per irrep:
		 Irrep 1: 39
	Number of geometries (including reference) is 79.
	Number of displacements per irrep:
	  Irrep 1: 78

  //>>>>>>>>>>>>>>>>>>>>>>>>>>>>>>>>>>>//
  //    Loading displacement 1 of 79   //
  //<<<<<<<<<<<<<<<<<<<<<<<<<<<<<<<<<<<//
gradient() will perform analytic gradient computation.

*** tstart() called on wr86
*** at Thu Dec  6 16:06:33 2018

   => Loading Basis Set <=

    Name: 6-31G(D)
    Role: ORBITAL
    Keyword: BASIS
    atoms 1, 4, 8, 13               entry C          line   111 file /usr/local/hpc1/software_molmod/psi4/psi4conda/share/psi4/basis/6-31g_d_.gbs 
    atoms 2-3, 5-7, 9-10, 12, 14-15 entry H          line    44 file /usr/local/hpc1/software_molmod/psi4/psi4conda/share/psi4/basis/6-31g_d_.gbs 
    atoms 11                        entry O          line   145 file /usr/local/hpc1/software_molmod/psi4/psi4conda/share/psi4/basis/6-31g_d_.gbs 


         ---------------------------------------------------------
                                   SCF
            by Justin Turney, Rob Parrish, Andy Simmonett
                             and Daniel Smith
                              RHF Reference
                       16 Threads,  95367 MiB Core
         ---------------------------------------------------------

  ==> Geometry <==

    Molecular point group: c1
    Full point group: C1

    Geometry (in Angstrom), charge = 0, multiplicity = 1:

       Center              X                  Y                   Z               Mass       
    ------------   -----------------  -----------------  -----------------  -----------------
         C           -1.113480290200    -0.620290490122     0.583706577346    12.000000000000
         H           -0.798578044193    -1.659503567838     0.656946545834     1.007825032070
         H           -1.852218404914    -0.580585605037    -0.213093839712     1.007825032070
         C           -1.764383350494    -0.195609330865     1.899102553256    12.000000000000
         H           -2.120675623878     0.828984678770     1.846251627979     1.007825032070
         H           -1.059930800949    -0.258059113484     2.723617861601     1.007825032070
         H           -2.612174501160    -0.829320857645     2.139489301383     1.007825032070
         C            0.739214562285    -0.172394417819    -1.105003382314    12.000000000000
         H            0.024396441722    -0.108385718152    -1.915839204487     1.007825032070
         H            1.066461816203    -1.209672329534    -1.045089114956     1.007825032070
         O            1.807163753028     0.662068498290    -1.470457295451    15.994914619560
         H            2.496146001096     0.591123283220    -0.824535418098     1.007825032070
         C            0.086459917242     0.250659816818     0.205244636692    12.000000000000
         H           -0.218229929888     1.290160171238     0.117813217221     1.007825032070
         H            0.828867627549     0.210638233135     1.002553654992     1.007825032070

  Running in c1 symmetry.

  Rotational constants: A =      0.62834  B =      0.06565  C =      0.06240 [cm^-1]
  Rotational constants: A =  18837.21881  B =   1968.14362  C =   1870.69452 [MHz]
  Nuclear repulsion =  185.551010573306144

  Charge       = 0
  Multiplicity = 1
  Electrons    = 42
  Nalpha       = 21
  Nbeta        = 21

  ==> Algorithm <==

  SCF Algorithm Type is DF.
  DIIS enabled.
  MOM disabled.
  Fractional occupation disabled.
  Guess Type is SAD.
  Energy threshold   = 1.00e-08
  Density threshold  = 1.00e-08
  Integral threshold = 0.00e+00

  ==> Primary Basis <==

  Basis Set: 6-31G(D)
    Blend: 6-31G(D)
    Number of shells: 50
    Number of basis function: 95
    Number of Cartesian functions: 95
    Spherical Harmonics?: false
    Max angular momentum: 2

   => Loading Basis Set <=

    Name: (6-31G(D) AUX)
    Role: JKFIT
    Keyword: DF_BASIS_SCF
    atoms 1, 4, 8, 13               entry C          line   121 file /usr/local/hpc1/software_molmod/psi4/psi4conda/share/psi4/basis/cc-pvdz-jkfit.gbs 
    atoms 2-3, 5-7, 9-10, 12, 14-15 entry H          line    51 file /usr/local/hpc1/software_molmod/psi4/psi4conda/share/psi4/basis/cc-pvdz-jkfit.gbs 
    atoms 11                        entry O          line   221 file /usr/local/hpc1/software_molmod/psi4/psi4conda/share/psi4/basis/cc-pvdz-jkfit.gbs 

  ==> Pre-Iterations <==

   -------------------------------------------------------
    Irrep   Nso     Nmo     Nalpha   Nbeta   Ndocc  Nsocc
   -------------------------------------------------------
     A         95      95       0       0       0       0
   -------------------------------------------------------
    Total      95      95      21      21      21       0
   -------------------------------------------------------

  ==> Integral Setup <==

  ==> DiskDFJK: Density-Fitted J/K Matrices <==

    J tasked:                  Yes
    K tasked:                  Yes
    wK tasked:                  No
    OpenMP threads:             16
    Integrals threads:          16
    Memory (MB):             71525
    Algorithm:                Core
    Integral Cache:           NONE
    Schwarz Cutoff:          1E-12
    Fitting Condition:       1E-12

   => Auxiliary Basis Set <=

  Basis Set: (6-31G(D) AUX)
    Blend: CC-PVDZ-JKFIT
    Number of shells: 210
    Number of basis function: 655
    Number of Cartesian functions: 655
    Spherical Harmonics?: false
    Max angular momentum: 3

  Minimum eigenvalue in the overlap matrix is 3.6745906798E-03.
  Using Symmetric Orthogonalization.

  SCF Guess: Superposition of Atomic Densities via on-the-fly atomic UHF.

  ==> Iterations <==

                           Total Energy        Delta E     RMS |[F,P]|

   @DF-RHF iter   0:  -234.27835529788942   -2.34278e+02   1.79601e-01 
   @DF-RHF iter   1:  -232.02423221875839    2.25412e+00   1.12222e-02 
   @DF-RHF iter   2:  -232.12849184747594   -1.04260e-01   4.18427e-03 DIIS
   @DF-RHF iter   3:  -232.14226176981344   -1.37699e-02   1.63897e-03 DIIS
   @DF-RHF iter   4:  -232.14477350396169   -2.51173e-03   4.20825e-04 DIIS
   @DF-RHF iter   5:  -232.14493902004352   -1.65516e-04   1.37578e-04 DIIS
   @DF-RHF iter   6:  -232.14496540024544   -2.63802e-05   3.41781e-05 DIIS
   @DF-RHF iter   7:  -232.14496730933456   -1.90909e-06   1.01099e-05 DIIS
   @DF-RHF iter   8:  -232.14496747420708   -1.64873e-07   3.42717e-06 DIIS
   @DF-RHF iter   9:  -232.14496748253666   -8.32958e-09   7.35029e-07 DIIS
   @DF-RHF iter  10:  -232.14496748302236   -4.85699e-10   1.67235e-07 DIIS
   @DF-RHF iter  11:  -232.14496748304310   -2.07478e-11   2.49485e-08 DIIS
   @DF-RHF iter  12:  -232.14496748304421   -1.10845e-12   7.94566e-09 DIIS

  ==> Post-Iterations <==

    Orbital Energies [Eh]
    ---------------------

    Doubly Occupied:                                                      

       1A    -20.552582     2A    -11.267260     3A    -11.222521  
       4A    -11.217198     5A    -11.213450     6A     -1.359538  
       7A     -1.073468     8A     -0.975625     9A     -0.863131  
      10A     -0.804229    11A     -0.693037    12A     -0.641306  
      13A     -0.611757    14A     -0.599391    15A     -0.552951  
      16A     -0.541600    17A     -0.515314    18A     -0.481658  
      19A     -0.477527    20A     -0.465748    21A     -0.426509  

    Virtual:                                                              

      22A      0.223458    23A      0.236269    24A      0.269982  
      25A      0.279965    26A      0.296677    27A      0.320546  
      28A      0.334964    29A      0.341656    30A      0.347865  
      31A      0.357193    32A      0.386872    33A      0.422022  
      34A      0.450815    35A      0.476667    36A      0.708078  
      37A      0.746097    38A      0.746988    39A      0.758423  
      40A      0.774659    41A      0.847027    42A      0.889899  
      43A      0.906885    44A      0.965807    45A      0.984434  
      46A      1.039003    47A      1.074138    48A      1.087957  
      49A      1.132777    50A      1.163892    51A      1.173791  
      52A      1.187100    53A      1.195218    54A      1.201695  
      55A      1.213930    56A      1.224917    57A      1.232807  
      58A      1.262251    59A      1.334446    60A      1.344161  
      61A      1.481946    62A      1.589838    63A      1.652850  
      64A      1.711852    65A      1.732860    66A      1.798208  
      67A      1.860867    68A      1.954040    69A      2.063089  
      70A      2.079075    71A      2.119354    72A      2.226043  
      73A      2.234106    74A      2.271771    75A      2.330088  
      76A      2.342291    77A      2.377137    78A      2.488940  
      79A      2.509599    80A      2.598251    81A      2.640433  
      82A      2.663063    83A      2.732885    84A      2.775286  
      85A      2.824271    86A      2.883359    87A      2.913277  
      88A      3.020159    89A      3.152521    90A      3.249164  
      91A      4.204753    92A      4.574158    93A      4.691880  
      94A      4.802130    95A      4.948842  

    Final Occupation by Irrep:
              A 
    DOCC [    21 ]

  Energy converged.

  @DF-RHF Final Energy:  -232.14496748304421

   => Energetics <=

    Nuclear Repulsion Energy =            185.5510105733061437
    One-Electron Energy =                -682.2803527418275280
    Two-Electron Energy =                 264.5843746854772007
    Total Energy =                       -232.1449674830441836



Properties will be evaluated at   0.000000,   0.000000,   0.000000 [a0]

Properties computed using the SCF density matrix

  Nuclear Dipole Moment: [e a0]
     X:    -3.9718      Y:    -1.6136      Z:     4.2004

  Electronic Dipole Moment: [e a0]
     X:     3.9063      Y:     1.2210      Z:    -3.5881

  Dipole Moment: [e a0]
     X:    -0.0655      Y:    -0.3926      Z:     0.6123     Total:     0.7303

  Dipole Moment: [D]
     X:    -0.1664      Y:    -0.9978      Z:     1.5564     Total:     1.8562


*** tstop() called on wr86 at Thu Dec  6 16:06:35 2018
Module time:
	user time   =      17.81 seconds =       0.30 minutes
	system time =       0.53 seconds =       0.01 minutes
	total time  =          2 seconds =       0.03 minutes
Total time:
	user time   =      57.26 seconds =       0.95 minutes
	system time =       2.29 seconds =       0.04 minutes
	total time  =          6 seconds =       0.10 minutes

*** tstart() called on wr86
*** at Thu Dec  6 16:06:35 2018


         ------------------------------------------------------------
                                   SCF GRAD                          
                          Rob Parrish, Justin Turney,                
                       Andy Simmonett, and Alex Sokolov              
         ------------------------------------------------------------

  ==> Geometry <==

    Molecular point group: c1
    Full point group: C1

    Geometry (in Angstrom), charge = 0, multiplicity = 1:

       Center              X                  Y                   Z               Mass       
    ------------   -----------------  -----------------  -----------------  -----------------
         C           -1.113480290200    -0.620290490122     0.583706577346    12.000000000000
         H           -0.798578044193    -1.659503567838     0.656946545834     1.007825032070
         H           -1.852218404914    -0.580585605037    -0.213093839712     1.007825032070
         C           -1.764383350494    -0.195609330865     1.899102553256    12.000000000000
         H           -2.120675623878     0.828984678770     1.846251627979     1.007825032070
         H           -1.059930800949    -0.258059113484     2.723617861601     1.007825032070
         H           -2.612174501160    -0.829320857645     2.139489301383     1.007825032070
         C            0.739214562285    -0.172394417819    -1.105003382314    12.000000000000
         H            0.024396441722    -0.108385718152    -1.915839204487     1.007825032070
         H            1.066461816203    -1.209672329534    -1.045089114956     1.007825032070
         O            1.807163753028     0.662068498290    -1.470457295451    15.994914619560
         H            2.496146001096     0.591123283220    -0.824535418098     1.007825032070
         C            0.086459917242     0.250659816818     0.205244636692    12.000000000000
         H           -0.218229929888     1.290160171238     0.117813217221     1.007825032070
         H            0.828867627549     0.210638233135     1.002553654992     1.007825032070

  Nuclear repulsion =  185.551010573306144

  ==> Basis Set <==

  Basis Set: 6-31G(D)
    Blend: 6-31G(D)
    Number of shells: 50
    Number of basis function: 95
    Number of Cartesian functions: 95
    Spherical Harmonics?: false
    Max angular momentum: 2

  ==> DFJKGrad: Density-Fitted SCF Gradients <==

    Gradient:                    1
    J tasked:                  Yes
    K tasked:                  Yes
    wK tasked:                  No
    OpenMP threads:             16
    Integrals threads:          16
    Memory (MB):             71525
    Schwarz Cutoff:          0E+00
    Fitting Condition:       1E-12

   => Auxiliary Basis Set <=

  Basis Set: (6-31G(D) AUX)
    Blend: CC-PVDZ-JKFIT
    Number of shells: 210
    Number of basis function: 655
    Number of Cartesian functions: 655
    Spherical Harmonics?: false
    Max angular momentum: 3


  -Total Gradient:
     Atom            X                  Y                   Z
    ------   -----------------  -----------------  -----------------
       1       -0.000976490696     0.000056802068    -0.000089067386
       2        0.000140877969    -0.000126001218     0.000013436156
       3        0.000310456226    -0.000017009518     0.000226146572
       4        0.000195857624    -0.000027604708    -0.000078457569
       5        0.000008569278    -0.000004629128    -0.000019435112
       6       -0.000020778991     0.000014100015     0.000038485758
       7        0.000018575183    -0.000018901692    -0.000043816722
       8        0.000023408121     0.000013668572    -0.000010424908
       9       -0.000001860445     0.000000098219     0.000003114902
      10       -0.000001013130     0.000000320747     0.000001828941
      11       -0.000000501848    -0.000000285045    -0.000001468858
      12       -0.000000250724    -0.000000209095    -0.000000332560
      13        0.000283797102     0.000093899305    -0.000032817168
      14       -0.000016705049    -0.000011554821     0.000005201692
      15        0.000036059378     0.000027306301    -0.000012393737


*** tstop() called on wr86 at Thu Dec  6 16:06:36 2018
Module time:
	user time   =      17.06 seconds =       0.28 minutes
	system time =       0.64 seconds =       0.01 minutes
	total time  =          1 seconds =       0.02 minutes
Total time:
	user time   =      74.35 seconds =       1.24 minutes
	system time =       2.93 seconds =       0.05 minutes
	total time  =          7 seconds =       0.12 minutes

  //>>>>>>>>>>>>>>>>>>>>>>>>>>>>>>>>>>>//
  //    Loading displacement 2 of 79   //
  //<<<<<<<<<<<<<<<<<<<<<<<<<<<<<<<<<<<//
gradient() will perform analytic gradient computation.

*** tstart() called on wr86
*** at Thu Dec  6 16:06:36 2018

   => Loading Basis Set <=

    Name: 6-31G(D)
    Role: ORBITAL
    Keyword: BASIS
    atoms 1, 4, 8, 13               entry C          line   111 file /usr/local/hpc1/software_molmod/psi4/psi4conda/share/psi4/basis/6-31g_d_.gbs 
    atoms 2-3, 5-7, 9-10, 12, 14-15 entry H          line    44 file /usr/local/hpc1/software_molmod/psi4/psi4conda/share/psi4/basis/6-31g_d_.gbs 
    atoms 11                        entry O          line   145 file /usr/local/hpc1/software_molmod/psi4/psi4conda/share/psi4/basis/6-31g_d_.gbs 


         ---------------------------------------------------------
                                   SCF
            by Justin Turney, Rob Parrish, Andy Simmonett
                             and Daniel Smith
                              RHF Reference
                       16 Threads,  95367 MiB Core
         ---------------------------------------------------------

  ==> Geometry <==

    Molecular point group: c1
    Full point group: C1

    Geometry (in Angstrom), charge = 0, multiplicity = 1:

       Center              X                  Y                   Z               Mass       
    ------------   -----------------  -----------------  -----------------  -----------------
         C           -1.112144743726    -0.620163106410     0.583596618410    12.000000000000
         H           -0.799196406791    -1.659450051396     0.656673928798     1.007825032070
         H           -1.852614346592    -0.580184587629    -0.213204772805     1.007825032070
         C           -1.764723983618    -0.195562639465     1.899053869506    12.000000000000
         H           -2.120812723936     0.829110359424     1.846362852039     1.007825032070
         H           -1.060292004741    -0.258283509668     2.723566175769     1.007825032070
         H           -2.612643060000    -0.829144516087     2.139331143753     1.007825032070
         C            0.738908296639    -0.172364588873    -1.105023554412    12.000000000000
         H            0.024110920040    -0.108084929916    -1.915856228573     1.007825032070
         H            1.065949434913    -1.209716861388    -1.045271505523     1.007825032070
         O            1.807026424730     0.661944999738    -1.470333792147    15.994914619560
         H            2.495988191872     0.590760249451    -0.824416422756     1.007825032070
         C            0.086224478784     0.250609968402     0.205285470660    12.000000000000
         H           -0.218258539694     1.290184603432     0.118016847691     1.007825032070
         H            0.828616331383     0.210314115945     1.002595440256     1.007825032070

  Running in c1 symmetry.

  Rotational constants: A =      0.62851  B =      0.06566  C =      0.06241 [cm^-1]
  Rotational constants: A =  18842.23225  B =   1968.44396  C =   1871.02012 [MHz]
  Nuclear repulsion =  185.561750728351711

  Charge       = 0
  Multiplicity = 1
  Electrons    = 42
  Nalpha       = 21
  Nbeta        = 21

  ==> Algorithm <==

  SCF Algorithm Type is DF.
  DIIS enabled.
  MOM disabled.
  Fractional occupation disabled.
  Guess Type is SAD.
  Energy threshold   = 1.00e-08
  Density threshold  = 1.00e-08
  Integral threshold = 0.00e+00

  ==> Primary Basis <==

  Basis Set: 6-31G(D)
    Blend: 6-31G(D)
    Number of shells: 50
    Number of basis function: 95
    Number of Cartesian functions: 95
    Spherical Harmonics?: false
    Max angular momentum: 2

   => Loading Basis Set <=

    Name: (6-31G(D) AUX)
    Role: JKFIT
    Keyword: DF_BASIS_SCF
    atoms 1, 4, 8, 13               entry C          line   121 file /usr/local/hpc1/software_molmod/psi4/psi4conda/share/psi4/basis/cc-pvdz-jkfit.gbs 
    atoms 2-3, 5-7, 9-10, 12, 14-15 entry H          line    51 file /usr/local/hpc1/software_molmod/psi4/psi4conda/share/psi4/basis/cc-pvdz-jkfit.gbs 
    atoms 11                        entry O          line   221 file /usr/local/hpc1/software_molmod/psi4/psi4conda/share/psi4/basis/cc-pvdz-jkfit.gbs 

  ==> Pre-Iterations <==

   -------------------------------------------------------
    Irrep   Nso     Nmo     Nalpha   Nbeta   Ndocc  Nsocc
   -------------------------------------------------------
     A         95      95       0       0       0       0
   -------------------------------------------------------
    Total      95      95      21      21      21       0
   -------------------------------------------------------

  ==> Integral Setup <==

  ==> DiskDFJK: Density-Fitted J/K Matrices <==

    J tasked:                  Yes
    K tasked:                  Yes
    wK tasked:                  No
    OpenMP threads:             16
    Integrals threads:          16
    Memory (MB):             71525
    Algorithm:                Core
    Integral Cache:           NONE
    Schwarz Cutoff:          1E-12
    Fitting Condition:       1E-12

   => Auxiliary Basis Set <=

  Basis Set: (6-31G(D) AUX)
    Blend: CC-PVDZ-JKFIT
    Number of shells: 210
    Number of basis function: 655
    Number of Cartesian functions: 655
    Spherical Harmonics?: false
    Max angular momentum: 3

  Minimum eigenvalue in the overlap matrix is 3.6708517693E-03.
  Using Symmetric Orthogonalization.

  SCF Guess: Superposition of Atomic Densities via on-the-fly atomic UHF.

  ==> Iterations <==

                           Total Energy        Delta E     RMS |[F,P]|

   @DF-RHF iter   0:  -233.92365224190024   -2.33924e+02   1.85208e-01 
   @DF-RHF iter   1:  -231.98492975945214    1.93872e+00   1.38969e-02 
   @DF-RHF iter   2:  -232.11652354940924   -1.31594e-01   6.61106e-03 DIIS
   @DF-RHF iter   3:  -232.14132515379364   -2.48016e-02   1.78553e-03 DIIS
   @DF-RHF iter   4:  -232.14479010574604   -3.46495e-03   3.04310e-04 DIIS
   @DF-RHF iter   5:  -232.14494650840879   -1.56403e-04   1.56203e-04 DIIS
   @DF-RHF iter   6:  -232.14496529263636   -1.87842e-05   3.52866e-05 DIIS
   @DF-RHF iter   7:  -232.14496731271169   -2.02008e-06   1.07000e-05 DIIS
   @DF-RHF iter   8:  -232.14496747291301   -1.60201e-07   2.94028e-06 DIIS
   @DF-RHF iter   9:  -232.14496748296500   -1.00520e-08   6.69201e-07 DIIS
   @DF-RHF iter  10:  -232.14496748357212   -6.07116e-10   1.94913e-07 DIIS
   @DF-RHF iter  11:  -232.14496748361086   -3.87388e-11   3.46470e-08 DIIS
   @DF-RHF iter  12:  -232.14496748361353   -2.67164e-12   9.01258e-09 DIIS

  ==> Post-Iterations <==

    Orbital Energies [Eh]
    ---------------------

    Doubly Occupied:                                                      

       1A    -20.552589     2A    -11.267271     3A    -11.222545  
       4A    -11.217168     5A    -11.213477     6A     -1.359547  
       7A     -1.073592     8A     -0.975552     9A     -0.863219  
      10A     -0.804172    11A     -0.693066    12A     -0.641321  
      13A     -0.611841    14A     -0.599332    15A     -0.552934  
      16A     -0.541656    17A     -0.515157    18A     -0.481783  
      19A     -0.477469    20A     -0.465776    21A     -0.426528  

    Virtual:                                                              

      22A      0.223472    23A      0.236250    24A      0.269986  
      25A      0.279945    26A      0.296596    27A      0.320562  
      28A      0.334961    29A      0.341550    30A      0.347914  
      31A      0.357136    32A      0.386778    33A      0.422396  
      34A      0.450732    35A      0.476794    36A      0.708035  
      37A      0.746162    38A      0.747056    39A      0.758276  
      40A      0.774633    41A      0.847091    42A      0.889892  
      43A      0.906859    44A      0.966402    45A      0.984245  
      46A      1.039009    47A      1.074224    48A      1.087937  
      49A      1.132629    50A      1.163876    51A      1.173760  
      52A      1.187173    53A      1.195098    54A      1.201728  
      55A      1.213953    56A      1.224776    57A      1.232568  
      58A      1.262217    59A      1.334410    60A      1.344288  
      61A      1.482050    62A      1.589970    63A      1.652787  
      64A      1.711908    65A      1.732882    66A      1.798333  
      67A      1.861049    68A      1.953969    69A      2.062864  
      70A      2.079103    71A      2.119427    72A      2.225946  
      73A      2.234311    74A      2.272073    75A      2.329898  
      76A      2.342568    77A      2.377005    78A      2.489011  
      79A      2.509526    80A      2.597675    81A      2.640381  
      82A      2.663242    83A      2.732347    84A      2.775943  
      85A      2.824375    86A      2.883361    87A      2.913378  
      88A      3.020506    89A      3.152815    90A      3.249271  
      91A      4.204855    92A      4.574245    93A      4.691812  
      94A      4.802112    95A      4.948932  

    Final Occupation by Irrep:
              A 
    DOCC [    21 ]

  Energy converged.

  @DF-RHF Final Energy:  -232.14496748361353

   => Energetics <=

    Nuclear Repulsion Energy =            185.5617507283517114
    One-Electron Energy =                -682.3014456974010500
    Two-Electron Energy =                 264.5947274854357829
    Total Energy =                       -232.1449674836135273



Properties will be evaluated at   0.000000,   0.000000,   0.000000 [a0]

Properties computed using the SCF density matrix

  Nuclear Dipole Moment: [e a0]
     X:    -3.9748      Y:    -1.6135      Z:     4.2001

  Electronic Dipole Moment: [e a0]
     X:     3.9097      Y:     1.2207      Z:    -3.5878

  Dipole Moment: [e a0]
     X:    -0.0650      Y:    -0.3927      Z:     0.6124     Total:     0.7304

  Dipole Moment: [D]
     X:    -0.1653      Y:    -0.9982      Z:     1.5565     Total:     1.8564


*** tstop() called on wr86 at Thu Dec  6 16:06:38 2018
Module time:
	user time   =      21.38 seconds =       0.36 minutes
	system time =       0.62 seconds =       0.01 minutes
	total time  =          2 seconds =       0.03 minutes
Total time:
	user time   =      95.96 seconds =       1.60 minutes
	system time =       3.56 seconds =       0.06 minutes
	total time  =          9 seconds =       0.15 minutes

*** tstart() called on wr86
*** at Thu Dec  6 16:06:38 2018


         ------------------------------------------------------------
                                   SCF GRAD                          
                          Rob Parrish, Justin Turney,                
                       Andy Simmonett, and Alex Sokolov              
         ------------------------------------------------------------

  ==> Geometry <==

    Molecular point group: c1
    Full point group: C1

    Geometry (in Angstrom), charge = 0, multiplicity = 1:

       Center              X                  Y                   Z               Mass       
    ------------   -----------------  -----------------  -----------------  -----------------
         C           -1.112144743726    -0.620163106410     0.583596618410    12.000000000000
         H           -0.799196406791    -1.659450051396     0.656673928798     1.007825032070
         H           -1.852614346592    -0.580184587629    -0.213204772805     1.007825032070
         C           -1.764723983618    -0.195562639465     1.899053869506    12.000000000000
         H           -2.120812723936     0.829110359424     1.846362852039     1.007825032070
         H           -1.060292004741    -0.258283509668     2.723566175769     1.007825032070
         H           -2.612643060000    -0.829144516087     2.139331143753     1.007825032070
         C            0.738908296639    -0.172364588873    -1.105023554412    12.000000000000
         H            0.024110920040    -0.108084929916    -1.915856228573     1.007825032070
         H            1.065949434913    -1.209716861388    -1.045271505523     1.007825032070
         O            1.807026424730     0.661944999738    -1.470333792147    15.994914619560
         H            2.495988191872     0.590760249451    -0.824416422756     1.007825032070
         C            0.086224478784     0.250609968402     0.205285470660    12.000000000000
         H           -0.218258539694     1.290184603432     0.118016847691     1.007825032070
         H            0.828616331383     0.210314115945     1.002595440256     1.007825032070

  Nuclear repulsion =  185.561750728351711

  ==> Basis Set <==

  Basis Set: 6-31G(D)
    Blend: 6-31G(D)
    Number of shells: 50
    Number of basis function: 95
    Number of Cartesian functions: 95
    Spherical Harmonics?: false
    Max angular momentum: 2

  ==> DFJKGrad: Density-Fitted SCF Gradients <==

    Gradient:                    1
    J tasked:                  Yes
    K tasked:                  Yes
    wK tasked:                  No
    OpenMP threads:             16
    Integrals threads:          16
    Memory (MB):             71525
    Schwarz Cutoff:          0E+00
    Fitting Condition:       1E-12

   => Auxiliary Basis Set <=

  Basis Set: (6-31G(D) AUX)
    Blend: CC-PVDZ-JKFIT
    Number of shells: 210
    Number of basis function: 655
    Number of Cartesian functions: 655
    Spherical Harmonics?: false
    Max angular momentum: 3


  -Total Gradient:
     Atom            X                  Y                   Z
    ------   -----------------  -----------------  -----------------
       1        0.000975786093    -0.000055060488     0.000086883216
       2       -0.000140866398     0.000126025675    -0.000013134371
       3       -0.000309678046     0.000017050172    -0.000225171995
       4       -0.000195475602     0.000027290256     0.000078459564
       5       -0.000008972528     0.000004507520     0.000019226372
       6        0.000020854512    -0.000013708417    -0.000038579590
       7       -0.000018290349     0.000018680070     0.000043912487
       8       -0.000023784923    -0.000014218627     0.000010512399
       9        0.000001815013    -0.000000195456    -0.000003096036
      10        0.000001026589    -0.000000140257    -0.000001706979
      11        0.000000689208     0.000000707140     0.000001401003
      12        0.000000256730     0.000000251999     0.000000255860
      13       -0.000284234299    -0.000095034441     0.000033610385
      14        0.000016633100     0.000011250776    -0.000004854837
      15       -0.000035759103    -0.000027405923     0.000012282523


*** tstop() called on wr86 at Thu Dec  6 16:06:39 2018
Module time:
	user time   =      16.06 seconds =       0.27 minutes
	system time =       0.67 seconds =       0.01 minutes
	total time  =          1 seconds =       0.02 minutes
Total time:
	user time   =     112.03 seconds =       1.87 minutes
	system time =       4.23 seconds =       0.07 minutes
	total time  =         10 seconds =       0.17 minutes

  //>>>>>>>>>>>>>>>>>>>>>>>>>>>>>>>>>>>//
  //    Loading displacement 3 of 79   //
  //<<<<<<<<<<<<<<<<<<<<<<<<<<<<<<<<<<<//
gradient() will perform analytic gradient computation.

*** tstart() called on wr86
*** at Thu Dec  6 16:06:40 2018

   => Loading Basis Set <=

    Name: 6-31G(D)
    Role: ORBITAL
    Keyword: BASIS
    atoms 1, 4, 8, 13               entry C          line   111 file /usr/local/hpc1/software_molmod/psi4/psi4conda/share/psi4/basis/6-31g_d_.gbs 
    atoms 2-3, 5-7, 9-10, 12, 14-15 entry H          line    44 file /usr/local/hpc1/software_molmod/psi4/psi4conda/share/psi4/basis/6-31g_d_.gbs 
    atoms 11                        entry O          line   145 file /usr/local/hpc1/software_molmod/psi4/psi4conda/share/psi4/basis/6-31g_d_.gbs 


         ---------------------------------------------------------
                                   SCF
            by Justin Turney, Rob Parrish, Andy Simmonett
                             and Daniel Smith
                              RHF Reference
                       16 Threads,  95367 MiB Core
         ---------------------------------------------------------

  ==> Geometry <==

    Molecular point group: c1
    Full point group: C1

    Geometry (in Angstrom), charge = 0, multiplicity = 1:

       Center              X                  Y                   Z               Mass       
    ------------   -----------------  -----------------  -----------------  -----------------
         C           -1.112812516963    -0.620873920826     0.583629350061    12.000000000000
         H           -0.799110304780    -1.659269221975     0.656711330995     1.007825032070
         H           -1.852511458862    -0.579977770634    -0.213155463464     1.007825032070
         C           -1.764559318363    -0.195334633185     1.899096748876    12.000000000000
         H           -2.120614310456     0.829349915716     1.846402201656     1.007825032070
         H           -1.060110485592    -0.258070099466     2.723593547703     1.007825032070
         H           -2.612494481571    -0.828884826343     2.139400806176     1.007825032070
         C            0.739004566106    -0.172256413824    -1.105038601898    12.000000000000
         H            0.024190703861    -0.107961648442    -1.915855547744     1.007825032070
         H            1.066011686069    -1.209619164333    -1.045282209066     1.007825032070
         O            1.807142750819     0.662012546196    -1.470382992348    15.994914619560
         H            2.496116969275     0.590811682615    -0.824480676993     1.007825032070
         C            0.086365359996     0.250755420401     0.205280612044    12.000000000000
         H           -0.218084198082     1.290339448586     0.118007100152     1.007825032070
         H            0.828774205206     0.210443365120     1.002573943188     1.007825032070

  Running in c1 symmetry.

  Rotational constants: A =      0.62823  B =      0.06565  C =      0.06240 [cm^-1]
  Rotational constants: A =  18833.91576  B =   1968.27033  C =   1870.78172 [MHz]
  Nuclear repulsion =  185.550629719783672

  Charge       = 0
  Multiplicity = 1
  Electrons    = 42
  Nalpha       = 21
  Nbeta        = 21

  ==> Algorithm <==

  SCF Algorithm Type is DF.
  DIIS enabled.
  MOM disabled.
  Fractional occupation disabled.
  Guess Type is SAD.
  Energy threshold   = 1.00e-08
  Density threshold  = 1.00e-08
  Integral threshold = 0.00e+00

  ==> Primary Basis <==

  Basis Set: 6-31G(D)
    Blend: 6-31G(D)
    Number of shells: 50
    Number of basis function: 95
    Number of Cartesian functions: 95
    Spherical Harmonics?: false
    Max angular momentum: 2

   => Loading Basis Set <=

    Name: (6-31G(D) AUX)
    Role: JKFIT
    Keyword: DF_BASIS_SCF
    atoms 1, 4, 8, 13               entry C          line   121 file /usr/local/hpc1/software_molmod/psi4/psi4conda/share/psi4/basis/cc-pvdz-jkfit.gbs 
    atoms 2-3, 5-7, 9-10, 12, 14-15 entry H          line    51 file /usr/local/hpc1/software_molmod/psi4/psi4conda/share/psi4/basis/cc-pvdz-jkfit.gbs 
    atoms 11                        entry O          line   221 file /usr/local/hpc1/software_molmod/psi4/psi4conda/share/psi4/basis/cc-pvdz-jkfit.gbs 

  ==> Pre-Iterations <==

   -------------------------------------------------------
    Irrep   Nso     Nmo     Nalpha   Nbeta   Ndocc  Nsocc
   -------------------------------------------------------
     A         95      95       0       0       0       0
   -------------------------------------------------------
    Total      95      95      21      21      21       0
   -------------------------------------------------------

  ==> Integral Setup <==

  ==> DiskDFJK: Density-Fitted J/K Matrices <==

    J tasked:                  Yes
    K tasked:                  Yes
    wK tasked:                  No
    OpenMP threads:             16
    Integrals threads:          16
    Memory (MB):             71525
    Algorithm:                Core
    Integral Cache:           NONE
    Schwarz Cutoff:          1E-12
    Fitting Condition:       1E-12

   => Auxiliary Basis Set <=

  Basis Set: (6-31G(D) AUX)
    Blend: CC-PVDZ-JKFIT
    Number of shells: 210
    Number of basis function: 655
    Number of Cartesian functions: 655
    Spherical Harmonics?: false
    Max angular momentum: 3

  Minimum eigenvalue in the overlap matrix is 3.6740271463E-03.
  Using Symmetric Orthogonalization.

  SCF Guess: Superposition of Atomic Densities via on-the-fly atomic UHF.

  ==> Iterations <==

                           Total Energy        Delta E     RMS |[F,P]|

   @DF-RHF iter   0:  -234.13332919519689   -2.34133e+02   1.28814e-01 
   @DF-RHF iter   1:  -232.00123170075960    2.13210e+00   1.03202e-02 
   @DF-RHF iter   2:  -232.12845841513831   -1.27227e-01   4.18308e-03 DIIS
   @DF-RHF iter   3:  -232.14182482272599   -1.33664e-02   2.95098e-03 DIIS
   @DF-RHF iter   4:  -232.14478055966345   -2.95574e-03   3.21538e-04 DIIS
   @DF-RHF iter   5:  -232.14495605242064   -1.75493e-04   8.48522e-05 DIIS
   @DF-RHF iter   6:  -232.14496639422998   -1.03418e-05   2.47853e-05 DIIS
   @DF-RHF iter   7:  -232.14496724731049   -8.53081e-07   9.24111e-06 DIIS
   @DF-RHF iter   8:  -232.14496734736446   -1.00054e-07   3.08394e-06 DIIS
   @DF-RHF iter   9:  -232.14496735689795   -9.53349e-09   5.01085e-07 DIIS
   @DF-RHF iter  10:  -232.14496735744680   -5.48852e-10   1.58189e-07 DIIS
   @DF-RHF iter  11:  -232.14496735748108   -3.42766e-11   5.03311e-08 DIIS
   @DF-RHF iter  12:  -232.14496735748506   -3.97904e-12   1.34335e-08 DIIS
   @DF-RHF iter  13:  -232.14496735748520   -1.42109e-13   2.82855e-09 DIIS

  ==> Post-Iterations <==

    Orbital Energies [Eh]
    ---------------------

    Doubly Occupied:                                                      

       1A    -20.552571     2A    -11.267249     3A    -11.222500  
       4A    -11.217192     5A    -11.213466     6A     -1.359530  
       7A     -1.073452     8A     -0.975550     9A     -0.863143  
      10A     -0.804274    11A     -0.693037    12A     -0.641329  
      13A     -0.611751    14A     -0.599359    15A     -0.552920  
      16A     -0.541627    17A     -0.515113    18A     -0.481937  
      19A     -0.477417    20A     -0.465800    21A     -0.426468  

    Virtual:                                                              

      22A      0.223472    23A      0.236268    24A      0.269985  
      25A      0.280003    26A      0.296670    27A      0.320562  
      28A      0.334965    29A      0.341592    30A      0.347982  
      31A      0.357182    32A      0.386775    33A      0.422054  
      34A      0.450790    35A      0.476683    36A      0.708060  
      37A      0.746143    38A      0.746912    39A      0.758445  
      40A      0.774649    41A      0.847061    42A      0.889894  
      43A      0.906819    44A      0.965821    45A      0.984235  
      46A      1.038971    47A      1.074255    48A      1.087987  
      49A      1.132841    50A      1.163997    51A      1.173824  
      52A      1.187116    53A      1.195207    54A      1.201746  
      55A      1.213966    56A      1.225146    57A      1.232740  
      58A      1.262269    59A      1.334403    60A      1.344299  
      61A      1.481991    62A      1.589880    63A      1.652786  
      64A      1.711727    65A      1.732907    66A      1.798262  
      67A      1.860946    68A      1.954043    69A      2.062946  
      70A      2.079186    71A      2.119439    72A      2.226062  
      73A      2.233825    74A      2.271932    75A      2.329840  
      76A      2.342165    77A      2.377183    78A      2.488995  
      79A      2.509504    80A      2.598218    81A      2.640506  
      82A      2.663070    83A      2.732602    84A      2.775606  
      85A      2.824226    86A      2.883336    87A      2.913064  
      88A      3.019954    89A      3.152572    90A      3.249200  
      91A      4.204811    92A      4.574131    93A      4.691835  
      94A      4.802132    95A      4.948873  

    Final Occupation by Irrep:
              A 
    DOCC [    21 ]

  Energy converged.

  @DF-RHF Final Energy:  -232.14496735748520

   => Energetics <=

    Nuclear Repulsion Energy =            185.5506297197836716
    One-Electron Energy =                -682.2798275245978630
    Two-Electron Energy =                 264.5842304473289914
    Total Energy =                       -232.1449673574852000



Properties will be evaluated at   0.000000,   0.000000,   0.000000 [a0]

Properties computed using the SCF density matrix

  Nuclear Dipole Moment: [e a0]
     X:    -3.9735      Y:    -1.6119      Z:     4.2002

  Electronic Dipole Moment: [e a0]
     X:     3.9083      Y:     1.2189      Z:    -3.5879

  Dipole Moment: [e a0]
     X:    -0.0653      Y:    -0.3930      Z:     0.6124     Total:     0.7305

  Dipole Moment: [D]
     X:    -0.1659      Y:    -0.9989      Z:     1.5565     Total:     1.8569


*** tstop() called on wr86 at Thu Dec  6 16:06:42 2018
Module time:
	user time   =      19.12 seconds =       0.32 minutes
	system time =       0.49 seconds =       0.01 minutes
	total time  =          2 seconds =       0.03 minutes
Total time:
	user time   =     132.08 seconds =       2.20 minutes
	system time =       4.72 seconds =       0.08 minutes
	total time  =         13 seconds =       0.22 minutes

*** tstart() called on wr86
*** at Thu Dec  6 16:06:42 2018


         ------------------------------------------------------------
                                   SCF GRAD                          
                          Rob Parrish, Justin Turney,                
                       Andy Simmonett, and Alex Sokolov              
         ------------------------------------------------------------

  ==> Geometry <==

    Molecular point group: c1
    Full point group: C1

    Geometry (in Angstrom), charge = 0, multiplicity = 1:

       Center              X                  Y                   Z               Mass       
    ------------   -----------------  -----------------  -----------------  -----------------
         C           -1.112812516963    -0.620873920826     0.583629350061    12.000000000000
         H           -0.799110304780    -1.659269221975     0.656711330995     1.007825032070
         H           -1.852511458862    -0.579977770634    -0.213155463464     1.007825032070
         C           -1.764559318363    -0.195334633185     1.899096748876    12.000000000000
         H           -2.120614310456     0.829349915716     1.846402201656     1.007825032070
         H           -1.060110485592    -0.258070099466     2.723593547703     1.007825032070
         H           -2.612494481571    -0.828884826343     2.139400806176     1.007825032070
         C            0.739004566106    -0.172256413824    -1.105038601898    12.000000000000
         H            0.024190703861    -0.107961648442    -1.915855547744     1.007825032070
         H            1.066011686069    -1.209619164333    -1.045282209066     1.007825032070
         O            1.807142750819     0.662012546196    -1.470382992348    15.994914619560
         H            2.496116969275     0.590811682615    -0.824480676993     1.007825032070
         C            0.086365359996     0.250755420401     0.205280612044    12.000000000000
         H           -0.218084198082     1.290339448586     0.118007100152     1.007825032070
         H            0.828774205206     0.210443365120     1.002573943188     1.007825032070

  Nuclear repulsion =  185.550629719783672

  ==> Basis Set <==

  Basis Set: 6-31G(D)
    Blend: 6-31G(D)
    Number of shells: 50
    Number of basis function: 95
    Number of Cartesian functions: 95
    Spherical Harmonics?: false
    Max angular momentum: 2

  ==> DFJKGrad: Density-Fitted SCF Gradients <==

    Gradient:                    1
    J tasked:                  Yes
    K tasked:                  Yes
    wK tasked:                  No
    OpenMP threads:             16
    Integrals threads:          16
    Memory (MB):             71525
    Schwarz Cutoff:          0E+00
    Fitting Condition:       1E-12

   => Auxiliary Basis Set <=

  Basis Set: (6-31G(D) AUX)
    Blend: CC-PVDZ-JKFIT
    Number of shells: 210
    Number of basis function: 655
    Number of Cartesian functions: 655
    Spherical Harmonics?: false
    Max angular momentum: 3


  -Total Gradient:
     Atom            X                  Y                   Z
    ------   -----------------  -----------------  -----------------
       1        0.000154293111    -0.001080256059     0.000021826346
       2       -0.000145872218     0.000539223876    -0.000036992039
       3       -0.000046104406     0.000109902444    -0.000038505617
       4       -0.000045843229     0.000186206439     0.000064330088
       5       -0.000026992822     0.000015928864     0.000059633547
       6        0.000005153407    -0.000002674445    -0.000009080276
       7        0.000014261378    -0.000011968223    -0.000033710638
       8       -0.000014081902    -0.000017928357    -0.000006614093
       9        0.000000135702    -0.000000126123     0.000000234686
      10       -0.000001611998     0.000001194080     0.000001396429
      11       -0.000007587459    -0.000002171577     0.000009656505
      12        0.000001373302     0.000000121006    -0.000000385447
      13        0.000066047729     0.000232698123    -0.000018671410
      14        0.000054579379     0.000035063489    -0.000015314277
      15       -0.000007749975    -0.000005213537     0.000002196197


*** tstop() called on wr86 at Thu Dec  6 16:06:43 2018
Module time:
	user time   =      15.34 seconds =       0.26 minutes
	system time =       0.66 seconds =       0.01 minutes
	total time  =          1 seconds =       0.02 minutes
Total time:
	user time   =     147.44 seconds =       2.46 minutes
	system time =       5.38 seconds =       0.09 minutes
	total time  =         14 seconds =       0.23 minutes

  //>>>>>>>>>>>>>>>>>>>>>>>>>>>>>>>>>>>//
  //    Loading displacement 4 of 79   //
  //<<<<<<<<<<<<<<<<<<<<<<<<<<<<<<<<<<<//
gradient() will perform analytic gradient computation.

*** tstart() called on wr86
*** at Thu Dec  6 16:06:43 2018

   => Loading Basis Set <=

    Name: 6-31G(D)
    Role: ORBITAL
    Keyword: BASIS
    atoms 1, 4, 8, 13               entry C          line   111 file /usr/local/hpc1/software_molmod/psi4/psi4conda/share/psi4/basis/6-31g_d_.gbs 
    atoms 2-3, 5-7, 9-10, 12, 14-15 entry H          line    44 file /usr/local/hpc1/software_molmod/psi4/psi4conda/share/psi4/basis/6-31g_d_.gbs 
    atoms 11                        entry O          line   145 file /usr/local/hpc1/software_molmod/psi4/psi4conda/share/psi4/basis/6-31g_d_.gbs 


         ---------------------------------------------------------
                                   SCF
            by Justin Turney, Rob Parrish, Andy Simmonett
                             and Daniel Smith
                              RHF Reference
                       16 Threads,  95367 MiB Core
         ---------------------------------------------------------

  ==> Geometry <==

    Molecular point group: c1
    Full point group: C1

    Geometry (in Angstrom), charge = 0, multiplicity = 1:

       Center              X                  Y                   Z               Mass       
    ------------   -----------------  -----------------  -----------------  -----------------
         C           -1.112812516963    -0.619579675706     0.583673845695    12.000000000000
         H           -0.798664146204    -1.659684397258     0.656909143637     1.007825032070
         H           -1.852321292644    -0.580792422032    -0.213143149052     1.007825032070
         C           -1.764548015749    -0.195837337145     1.899059673886    12.000000000000
         H           -2.120874037358     0.828745122479     1.846212278362     1.007825032070
         H           -1.060112320098    -0.258272523686     2.723590489667     1.007825032070
         H           -2.612323079589    -0.829580547389     2.139419638959     1.007825032070
         C            0.739118292818    -0.172502592867    -1.104988334828    12.000000000000
         H            0.024316657901    -0.108508999626    -1.915839885316     1.007825032070
         H            1.066399565047    -1.209770026589    -1.045078411412     1.007825032070
         O            1.807047426939     0.662000951833    -1.470408095251    15.994914619560
         H            2.496017223693     0.591071850055    -0.824471163861     1.007825032070
         C            0.086319036030     0.250514364819     0.205249495308    12.000000000000
         H           -0.218404271500     1.290005326085     0.117822964760     1.007825032070
         H            0.828709753726     0.210508983960     1.002575152060     1.007825032070

  Running in c1 symmetry.

  Rotational constants: A =      0.62862  B =      0.06566  C =      0.06241 [cm^-1]
  Rotational constants: A =  18845.53240  B =   1968.31727  C =   1870.93290 [MHz]
  Nuclear repulsion =  185.562125635758207

  Charge       = 0
  Multiplicity = 1
  Electrons    = 42
  Nalpha       = 21
  Nbeta        = 21

  ==> Algorithm <==

  SCF Algorithm Type is DF.
  DIIS enabled.
  MOM disabled.
  Fractional occupation disabled.
  Guess Type is SAD.
  Energy threshold   = 1.00e-08
  Density threshold  = 1.00e-08
  Integral threshold = 0.00e+00

  ==> Primary Basis <==

  Basis Set: 6-31G(D)
    Blend: 6-31G(D)
    Number of shells: 50
    Number of basis function: 95
    Number of Cartesian functions: 95
    Spherical Harmonics?: false
    Max angular momentum: 2

   => Loading Basis Set <=

    Name: (6-31G(D) AUX)
    Role: JKFIT
    Keyword: DF_BASIS_SCF
    atoms 1, 4, 8, 13               entry C          line   121 file /usr/local/hpc1/software_molmod/psi4/psi4conda/share/psi4/basis/cc-pvdz-jkfit.gbs 
    atoms 2-3, 5-7, 9-10, 12, 14-15 entry H          line    51 file /usr/local/hpc1/software_molmod/psi4/psi4conda/share/psi4/basis/cc-pvdz-jkfit.gbs 
    atoms 11                        entry O          line   221 file /usr/local/hpc1/software_molmod/psi4/psi4conda/share/psi4/basis/cc-pvdz-jkfit.gbs 

  ==> Pre-Iterations <==

   -------------------------------------------------------
    Irrep   Nso     Nmo     Nalpha   Nbeta   Ndocc  Nsocc
   -------------------------------------------------------
     A         95      95       0       0       0       0
   -------------------------------------------------------
    Total      95      95      21      21      21       0
   -------------------------------------------------------

  ==> Integral Setup <==

  ==> DiskDFJK: Density-Fitted J/K Matrices <==

    J tasked:                  Yes
    K tasked:                  Yes
    wK tasked:                  No
    OpenMP threads:             16
    Integrals threads:          16
    Memory (MB):             71525
    Algorithm:                Core
    Integral Cache:           NONE
    Schwarz Cutoff:          1E-12
    Fitting Condition:       1E-12

   => Auxiliary Basis Set <=

  Basis Set: (6-31G(D) AUX)
    Blend: CC-PVDZ-JKFIT
    Number of shells: 210
    Number of basis function: 655
    Number of Cartesian functions: 655
    Spherical Harmonics?: false
    Max angular momentum: 3

  Minimum eigenvalue in the overlap matrix is 3.6714189581E-03.
  Using Symmetric Orthogonalization.

  SCF Guess: Superposition of Atomic Densities via on-the-fly atomic UHF.

  ==> Iterations <==

                           Total Energy        Delta E     RMS |[F,P]|

   @DF-RHF iter   0:  -233.84457873252330   -2.33845e+02   1.04753e-01 
   @DF-RHF iter   1:  -232.01052723624122    1.83405e+00   1.43127e-02 
   @DF-RHF iter   2:  -232.12845476270377   -1.17928e-01   6.20819e-03 DIIS
   @DF-RHF iter   3:  -232.14201193620897   -1.35572e-02   2.71119e-03 DIIS
   @DF-RHF iter   4:  -232.14480245578494   -2.79052e-03   3.15084e-04 DIIS
   @DF-RHF iter   5:  -232.14494967042157   -1.47215e-04   1.07715e-04 DIIS
   @DF-RHF iter   6:  -232.14496546586119   -1.57954e-05   3.00774e-05 DIIS
   @DF-RHF iter   7:  -232.14496717948953   -1.71363e-06   8.76136e-06 DIIS
   @DF-RHF iter   8:  -232.14496734596420   -1.66475e-07   2.65787e-06 DIIS
   @DF-RHF iter   9:  -232.14496735723944   -1.12752e-08   8.59287e-07 DIIS
   @DF-RHF iter  10:  -232.14496735790982   -6.70383e-10   1.69315e-07 DIIS
   @DF-RHF iter  11:  -232.14496735794282   -3.29976e-11   4.77135e-08 DIIS
   @DF-RHF iter  12:  -232.14496735794464   -1.81899e-12   1.12723e-08 DIIS
   @DF-RHF iter  13:  -232.14496735794506   -4.26326e-13   5.65431e-09 DIIS

  ==> Post-Iterations <==

    Orbital Energies [Eh]
    ---------------------

    Doubly Occupied:                                                      

       1A    -20.552599     2A    -11.267282     3A    -11.222566  
       4A    -11.217174     5A    -11.213461     6A     -1.359556  
       7A     -1.073607     8A     -0.975627     9A     -0.863208  
      10A     -0.804128    11A     -0.693066    12A     -0.641299  
      13A     -0.611848    14A     -0.599364    15A     -0.552966  
      16A     -0.541629    17A     -0.515357    18A     -0.481506  
      19A     -0.477578    20A     -0.465725    21A     -0.426569  

    Virtual:                                                              

      22A      0.223457    23A      0.236251    24A      0.269983  
      25A      0.279907    26A      0.296602    27A      0.320546  
      28A      0.334959    29A      0.341614    30A      0.347798  
      31A      0.357146    32A      0.386875    33A      0.422365  
      34A      0.450757    35A      0.476778    36A      0.708053  
      37A      0.746119    38A      0.747131    39A      0.758252  
      40A      0.774642    41A      0.847056    42A      0.889898  
      43A      0.906924    44A      0.966389    45A      0.984444  
      46A      1.039041    47A      1.074107    48A      1.087907  
      49A      1.132564    50A      1.163772    51A      1.173728  
      52A      1.187156    53A      1.195108    54A      1.201677  
      55A      1.213918    56A      1.224550    57A      1.232635  
      58A      1.262200    59A      1.334454    60A      1.344150  
      61A      1.482005    62A      1.589927    63A      1.652851  
      64A      1.712033    65A      1.732835    66A      1.798278  
      67A      1.860970    68A      1.953965    69A      2.063008  
      70A      2.078992    71A      2.119342    72A      2.225916  
      73A      2.234604    74A      2.271908    75A      2.330142  
      76A      2.342701    77A      2.376957    78A      2.488956  
      79A      2.509621    80A      2.597706    81A      2.640308  
      82A      2.663236    83A      2.732627    84A      2.775623  
      85A      2.824420    86A      2.883384    87A      2.913592  
      88A      3.020711    89A      3.152764    90A      3.249235  
      91A      4.204798    92A      4.574271    93A      4.691858  
      94A      4.802110    95A      4.948901  

    Final Occupation by Irrep:
              A 
    DOCC [    21 ]

  Energy converged.

  @DF-RHF Final Energy:  -232.14496735794506

   => Energetics <=

    Nuclear Repulsion Energy =            185.5621256357582070
    One-Electron Energy =                -682.3019570759166754
    Two-Electron Energy =                 264.5948640822134053
    Total Energy =                       -232.1449673579450632



Properties will be evaluated at   0.000000,   0.000000,   0.000000 [a0]

Properties computed using the SCF density matrix

  Nuclear Dipole Moment: [e a0]
     X:    -3.9730      Y:    -1.6152      Z:     4.2003

  Electronic Dipole Moment: [e a0]
     X:     3.9078      Y:     1.2228      Z:    -3.5880

  Dipole Moment: [e a0]
     X:    -0.0652      Y:    -0.3923      Z:     0.6123     Total:     0.7301

  Dipole Moment: [D]
     X:    -0.1658      Y:    -0.9971      Z:     1.5563     Total:     1.8558


*** tstop() called on wr86 at Thu Dec  6 16:06:45 2018
Module time:
	user time   =      18.37 seconds =       0.31 minutes
	system time =       0.52 seconds =       0.01 minutes
	total time  =          2 seconds =       0.03 minutes
Total time:
	user time   =     165.95 seconds =       2.77 minutes
	system time =       5.91 seconds =       0.10 minutes
	total time  =         16 seconds =       0.27 minutes

*** tstart() called on wr86
*** at Thu Dec  6 16:06:45 2018


         ------------------------------------------------------------
                                   SCF GRAD                          
                          Rob Parrish, Justin Turney,                
                       Andy Simmonett, and Alex Sokolov              
         ------------------------------------------------------------

  ==> Geometry <==

    Molecular point group: c1
    Full point group: C1

    Geometry (in Angstrom), charge = 0, multiplicity = 1:

       Center              X                  Y                   Z               Mass       
    ------------   -----------------  -----------------  -----------------  -----------------
         C           -1.112812516963    -0.619579675706     0.583673845695    12.000000000000
         H           -0.798664146204    -1.659684397258     0.656909143637     1.007825032070
         H           -1.852321292644    -0.580792422032    -0.213143149052     1.007825032070
         C           -1.764548015749    -0.195837337145     1.899059673886    12.000000000000
         H           -2.120874037358     0.828745122479     1.846212278362     1.007825032070
         H           -1.060112320098    -0.258272523686     2.723590489667     1.007825032070
         H           -2.612323079589    -0.829580547389     2.139419638959     1.007825032070
         C            0.739118292818    -0.172502592867    -1.104988334828    12.000000000000
         H            0.024316657901    -0.108508999626    -1.915839885316     1.007825032070
         H            1.066399565047    -1.209770026589    -1.045078411412     1.007825032070
         O            1.807047426939     0.662000951833    -1.470408095251    15.994914619560
         H            2.496017223693     0.591071850055    -0.824471163861     1.007825032070
         C            0.086319036030     0.250514364819     0.205249495308    12.000000000000
         H           -0.218404271500     1.290005326085     0.117822964760     1.007825032070
         H            0.828709753726     0.210508983960     1.002575152060     1.007825032070

  Nuclear repulsion =  185.562125635758207

  ==> Basis Set <==

  Basis Set: 6-31G(D)
    Blend: 6-31G(D)
    Number of shells: 50
    Number of basis function: 95
    Number of Cartesian functions: 95
    Spherical Harmonics?: false
    Max angular momentum: 2

  ==> DFJKGrad: Density-Fitted SCF Gradients <==

    Gradient:                    1
    J tasked:                  Yes
    K tasked:                  Yes
    wK tasked:                  No
    OpenMP threads:             16
    Integrals threads:          16
    Memory (MB):             71525
    Schwarz Cutoff:          0E+00
    Fitting Condition:       1E-12

   => Auxiliary Basis Set <=

  Basis Set: (6-31G(D) AUX)
    Blend: CC-PVDZ-JKFIT
    Number of shells: 210
    Number of basis function: 655
    Number of Cartesian functions: 655
    Spherical Harmonics?: false
    Max angular momentum: 3


  -Total Gradient:
     Atom            X                  Y                   Z
    ------   -----------------  -----------------  -----------------
       1       -0.000153278935     0.001077771881    -0.000022075782
       2        0.000144709189    -0.000535861888     0.000037021984
       3        0.000045832213    -0.000109656940     0.000037956741
       4        0.000046092096    -0.000186284277    -0.000064262180
       5        0.000026621642    -0.000016073007    -0.000059843038
       6       -0.000005047020     0.000003031238     0.000008942897
       7       -0.000014010564     0.000011742883     0.000033886466
       8        0.000013766127     0.000017424089     0.000006698706
       9       -0.000000195838     0.000000032775    -0.000000217910
      10        0.000001638519    -0.000001021622    -0.000001286123
      11        0.000007787254     0.000002573099    -0.000009728154
      12       -0.000001362798    -0.000000072074     0.000000293502
      13       -0.000065971477    -0.000233285190     0.000019213272
      14       -0.000054704194    -0.000035455004     0.000015690971
      15        0.000008123781     0.000005134037    -0.000002291351


*** tstop() called on wr86 at Thu Dec  6 16:06:46 2018
Module time:
	user time   =      15.84 seconds =       0.26 minutes
	system time =       0.68 seconds =       0.01 minutes
	total time  =          1 seconds =       0.02 minutes
Total time:
	user time   =     181.81 seconds =       3.03 minutes
	system time =       6.59 seconds =       0.11 minutes
	total time  =         17 seconds =       0.28 minutes

  //>>>>>>>>>>>>>>>>>>>>>>>>>>>>>>>>>>>//
  //    Loading displacement 5 of 79   //
  //<<<<<<<<<<<<<<<<<<<<<<<<<<<<<<<<<<<//
gradient() will perform analytic gradient computation.

*** tstart() called on wr86
*** at Thu Dec  6 16:06:46 2018

   => Loading Basis Set <=

    Name: 6-31G(D)
    Role: ORBITAL
    Keyword: BASIS
    atoms 1, 4, 8, 13               entry C          line   111 file /usr/local/hpc1/software_molmod/psi4/psi4conda/share/psi4/basis/6-31g_d_.gbs 
    atoms 2-3, 5-7, 9-10, 12, 14-15 entry H          line    44 file /usr/local/hpc1/software_molmod/psi4/psi4conda/share/psi4/basis/6-31g_d_.gbs 
    atoms 11                        entry O          line   145 file /usr/local/hpc1/software_molmod/psi4/psi4conda/share/psi4/basis/6-31g_d_.gbs 


         ---------------------------------------------------------
                                   SCF
            by Justin Turney, Rob Parrish, Andy Simmonett
                             and Daniel Smith
                              RHF Reference
                       16 Threads,  95367 MiB Core
         ---------------------------------------------------------

  ==> Geometry <==

    Molecular point group: c1
    Full point group: C1

    Geometry (in Angstrom), charge = 0, multiplicity = 1:

       Center              X                  Y                   Z               Mass       
    ------------   -----------------  -----------------  -----------------  -----------------
         C           -1.112812516963    -0.620226798266     0.582998189607    12.000000000000
         H           -0.798729691061    -1.659476273595     0.657145347944     1.007825032070
         H           -1.852366067679    -0.580552328291    -0.212892441733     1.007825032070
         C           -1.764471359472    -0.195533589670     1.899293733763    12.000000000000
[...]
      8   C                0.01  0.15  0.03    0.04 -0.01  0.03   -0.05  0.05  0.00   
      9   H               -0.13 -0.14  0.14   -0.21  0.04  0.25    0.21 -0.05 -0.24   
     10   H                0.35  0.25  0.04    0.12  0.00 -0.18    0.23  0.13 -0.09   
     11   O               -0.01 -0.04 -0.01    0.00  0.01 -0.02   -0.00 -0.03  0.01   
     12   H               -0.21 -0.24  0.17   -0.16 -0.19  0.14    0.09  0.11 -0.08   
     13   C               -0.02 -0.15 -0.04   -0.06  0.05 -0.07   -0.05 -0.03  0.09   
     14   H                0.05 -0.15 -0.30    0.24  0.15  0.01    0.45  0.08 -0.46   
     15   H               -0.10  0.01  0.04   -0.24 -0.26  0.09    0.21  0.12 -0.14   

  Vibration                       25                  26                  27          
  Freq [cm^-1]                1436.6113           1450.3749           1509.5342       
  Irrep                           A                   A                   A           
  Reduced mass [u]              1.2370              1.0525              1.2536        
  Force const [mDyne/A]         1.5042              1.3045              1.6831        
  Turning point v=0 [a0]        0.2603              0.2808              0.2522        
  RMS dev v=0 [a0 u^1/2]        0.2047              0.2037              0.1997        
  Char temp [K]               2066.9607           2086.7634           2171.8803       
  ----------------------------------------------------------------------------------
      1   C               -0.04 -0.01  0.01   -0.03  0.02 -0.01    0.07  0.01 -0.05   
      2   H               -0.21 -0.04  0.21    0.35  0.12 -0.26   -0.29 -0.07  0.26   
      3   H                0.42  0.08 -0.42   -0.28 -0.12  0.21   -0.16 -0.02  0.15   
      4   C                0.05 -0.02  0.04   -0.01  0.02 -0.01   -0.01 -0.03 -0.01   
      5   H               -0.02 -0.06 -0.16   -0.04  0.02  0.08    0.04 -0.00  0.08   
      6   H               -0.07  0.06  0.14    0.04 -0.05 -0.06   -0.05  0.09  0.04   
      7   H               -0.03  0.03 -0.12    0.01 -0.02 -0.02   -0.04  0.07  0.13   
      8   C                0.05 -0.02  0.05    0.02 -0.02  0.02   -0.08  0.01 -0.01   
      9   H               -0.14  0.08  0.22   -0.17  0.01  0.20   -0.16 -0.20  0.03   
     10   H                0.22  0.02 -0.30    0.19  0.02 -0.22    0.50  0.19 -0.34   
     11   O                0.00  0.00 -0.02    0.00 -0.00  0.00    0.02 -0.04  0.04   
     12   H               -0.13 -0.15  0.11   -0.01 -0.01  0.01    0.30  0.33 -0.23   
     13   C               -0.09  0.04 -0.02    0.00 -0.01  0.01   -0.01  0.03  0.01   
     14   H                0.10  0.11  0.10   -0.32 -0.08  0.29    0.02  0.04 -0.03   
     15   H                0.22 -0.09 -0.31    0.40  0.11 -0.35   -0.03 -0.06  0.02   

  Vibration                       28                  29                  30          
  Freq [cm^-1]                1540.3698           1567.5244           1582.6712       
  Irrep                           A                   A                   A           
  Reduced mass [u]              1.3375              1.2909              1.4819        
  Force const [mDyne/A]         1.8698              1.8689              2.1869        
  Turning point v=0 [a0]        0.2417              0.2439              0.2266        
  RMS dev v=0 [a0 u^1/2]        0.1977              0.1960              0.1950        
  Char temp [K]               2216.2458           2255.3151           2277.1079       
  ----------------------------------------------------------------------------------
      1   C                0.08  0.02 -0.08   -0.04 -0.01  0.05   -0.04 -0.00  0.04   
      2   H               -0.21 -0.04  0.24    0.15  0.05 -0.09    0.10  0.03 -0.11   
      3   H               -0.30 -0.05  0.27    0.13  0.07 -0.11    0.10  0.01 -0.09   
      4   C               -0.01 -0.03 -0.03    0.07 -0.03 -0.12    0.01  0.01 -0.00   
      5   H                0.02  0.00  0.19   -0.22 -0.09  0.50   -0.04 -0.01 -0.03   
      6   H               -0.10  0.13  0.07   -0.42  0.12  0.33   -0.00 -0.05 -0.00   
      7   H               -0.05  0.11  0.20   -0.04  0.31  0.43    0.01  0.01 -0.00   
      8   C                0.02 -0.02  0.07    0.01  0.01 -0.01   -0.09 -0.03  0.12   
      9   H                0.38  0.22 -0.22   -0.09 -0.03  0.06    0.49  0.12 -0.38   
     10   H               -0.04 -0.05 -0.06   -0.05 -0.01  0.06    0.33  0.08 -0.39   
     11   O               -0.01  0.02 -0.05    0.00 -0.00  0.01   -0.00  0.00 -0.03   
     12   H               -0.27 -0.29  0.20    0.03  0.03 -0.02   -0.10 -0.12  0.08   
     13   C               -0.05 -0.01  0.06    0.01 -0.00 -0.02    0.10  0.03 -0.07   
     14   H                0.13  0.02 -0.15   -0.03 -0.02  0.01   -0.29 -0.07  0.17   
     15   H                0.24  0.04 -0.21   -0.04 -0.02  0.03   -0.22 -0.12  0.20   

  Vibration                       31                  32                  33          
  Freq [cm^-1]                1635.8413           1641.0376           1644.4157       
  Irrep                           A                   A                   A           
  Reduced mass [u]              1.0663              1.0817              1.0419        
  Force const [mDyne/A]         1.6812              1.7163              1.6599        
  Turning point v=0 [a0]        0.2627              0.2604              0.2651        
  RMS dev v=0 [a0 u^1/2]        0.1918              0.1915              0.1913        
  Char temp [K]               2353.6078           2361.0842           2365.9444       
  ----------------------------------------------------------------------------------
      1   C               -0.01 -0.04 -0.04    0.01 -0.00 -0.02    0.01 -0.01  0.01   
      2   H                0.31  0.10  0.40    0.03  0.02  0.12    0.01 -0.02 -0.03   
      3   H               -0.08  0.50  0.08   -0.05  0.10  0.05   -0.01  0.03  0.04   
      4   C                0.01  0.02  0.01    0.02  0.02  0.00    0.03 -0.03  0.03   
      5   H               -0.23 -0.08 -0.22   -0.26 -0.09 -0.23   -0.43 -0.17  0.19   
      6   H                0.01 -0.33 -0.02   -0.03 -0.38  0.00    0.36  0.21 -0.25   
      7   H               -0.02  0.08  0.13   -0.01  0.11  0.21   -0.43  0.44 -0.35   
      8   C                0.01  0.00 -0.01   -0.01  0.01  0.02   -0.00  0.00 -0.00   
      9   H               -0.02  0.01  0.02    0.04 -0.15 -0.04    0.00 -0.01 -0.01   
     10   H               -0.01 -0.00  0.03   -0.08 -0.03 -0.14   -0.01  0.00 -0.00   
     11   O               -0.00 -0.00  0.00    0.00  0.00 -0.00    0.00 -0.00  0.00   
     12   H                0.00 -0.00 -0.00    0.00  0.00  0.00    0.00  0.00 -0.00   
     13   C                0.01  0.03  0.02   -0.02 -0.05 -0.04   -0.00 -0.00 -0.00   
     14   H               -0.22 -0.07 -0.26    0.34  0.11  0.41    0.03  0.01 -0.00   
     15   H                0.05 -0.33 -0.04   -0.08  0.52  0.06   -0.02  0.01  0.02   

  Vibration                       34                  35                  36          
  Freq [cm^-1]                1653.8497           1670.8430           3171.3743       
  Irrep                           A                   A                   A           
  Reduced mass [u]              1.0877              1.0951              1.0724        
  Force const [mDyne/A]         1.7530              1.8013              6.3549        
  Turning point v=0 [a0]        0.2587              0.2565              0.1882        
  RMS dev v=0 [a0 u^1/2]        0.1908              0.1898              0.1378        
  Char temp [K]               2379.5179           2403.9673           4562.8945       
  ----------------------------------------------------------------------------------
      1   C               -0.03 -0.05 -0.02   -0.01 -0.02 -0.01    0.01  0.00  0.01   
      2   H                0.31  0.09  0.29    0.11  0.03  0.12    0.02 -0.06  0.01   
      3   H               -0.03  0.44  0.01   -0.01  0.16  0.01   -0.13  0.01 -0.14   
      4   C               -0.03 -0.03 -0.00   -0.00 -0.00  0.00   -0.00  0.00  0.00   
      5   H                0.33  0.12  0.26    0.04  0.02  0.04    0.02 -0.05  0.00   
      6   H                0.02  0.43  0.00    0.00  0.06  0.00   -0.04  0.00 -0.04   
      7   H                0.02 -0.15 -0.21    0.00 -0.02 -0.03    0.04  0.03 -0.01   
      8   C                0.00  0.02  0.02   -0.03 -0.06 -0.04    0.01 -0.04 -0.00   
      9   H                0.03 -0.22 -0.03   -0.05  0.64  0.05    0.04 -0.01  0.03   
     10   H               -0.14 -0.05 -0.17    0.45  0.14  0.45   -0.16  0.47 -0.03   
     11   O                0.00  0.00  0.00   -0.00 -0.00 -0.00   -0.00 -0.00  0.00   
     12   H                0.00  0.00 -0.00    0.01  0.01 -0.01    0.00 -0.00 -0.00   
     13   C                0.00 -0.01 -0.02   -0.00 -0.02 -0.02   -0.04 -0.01 -0.05   
     14   H                0.11  0.04  0.16    0.11  0.04  0.17   -0.06  0.17 -0.03   
     15   H               -0.04  0.18  0.03   -0.05  0.19  0.04    0.55 -0.04  0.59   

  Vibration                       37                  38                  39          
  Freq [cm^-1]                3178.3630           3189.9635           3199.9168       
  Irrep                           A                   A                   A           
  Reduced mass [u]              1.0689              1.0612              1.0392        
  Force const [mDyne/A]         6.3621              6.3623              6.2696        
  Turning point v=0 [a0]        0.1883              0.1886              0.1903        
  RMS dev v=0 [a0 u^1/2]        0.1376              0.1374              0.1372        
  Char temp [K]               4572.9498           4589.6403           4603.9607       
  ----------------------------------------------------------------------------------
      1   C               -0.00  0.02  0.00   -0.02 -0.05 -0.03    0.01  0.01  0.01   
      2   H                0.08 -0.24  0.02   -0.21  0.66 -0.06    0.04 -0.11  0.01   
      3   H               -0.06  0.01 -0.06    0.41 -0.04  0.43   -0.14  0.01 -0.15   
      4   C                0.00 -0.00 -0.00    0.01  0.00 -0.01    0.01 -0.02 -0.04   
      5   H               -0.02  0.05 -0.00   -0.03  0.09 -0.01   -0.19  0.54 -0.04   
      6   H                0.03 -0.00  0.03    0.08 -0.01  0.08    0.41 -0.04  0.46   
      7   H               -0.01 -0.01  0.00   -0.16 -0.12  0.04   -0.37 -0.28  0.10   
      8   C                0.01 -0.06 -0.01    0.01 -0.02 -0.00   -0.00  0.01  0.00   
      9   H                0.13 -0.02  0.14    0.01 -0.00  0.02   -0.01  0.00 -0.01   
     10   H               -0.25  0.73 -0.05   -0.09  0.26 -0.01    0.02 -0.07  0.00   
     11   O               -0.00 -0.00  0.00   -0.00 -0.00  0.00    0.00  0.00 -0.00   
     12   H               -0.01 -0.00  0.00    0.00 -0.00 -0.00    0.00  0.00  0.00   
     13   C                0.02  0.02  0.03   -0.01  0.01 -0.00   -0.01  0.00 -0.01   
     14   H                0.07 -0.23  0.03    0.02 -0.09  0.01    0.00 -0.00 -0.00   
     15   H               -0.32  0.03 -0.34    0.04 -0.00  0.05    0.07 -0.00  0.07   

  Vibration                       40                  41                  42          
  Freq [cm^-1]                3211.3729           3233.5628           3261.3975       
  Irrep                           A                   A                   A           
  Reduced mass [u]              1.0981              1.0960              1.1029        
  Force const [mDyne/A]         6.6721              6.7518              6.9121        
  Turning point v=0 [a0]        0.1848              0.1843              0.1830        
  RMS dev v=0 [a0 u^1/2]        0.1369              0.1364              0.1359        
  Char temp [K]               4620.4436           4652.3698           4692.4177       
  ----------------------------------------------------------------------------------
      1   C                0.05 -0.04  0.04    0.02 -0.02  0.02   -0.02  0.01 -0.01   
      2   H               -0.15  0.51 -0.03   -0.08  0.26 -0.02    0.05 -0.17  0.01   
      3   H               -0.45  0.02 -0.48   -0.16  0.01 -0.17    0.15 -0.01  0.16   
      4   C               -0.02  0.01 -0.01   -0.02  0.02 -0.01   -0.07  0.03 -0.04   
      5   H                0.06 -0.19  0.01    0.06 -0.20  0.01    0.16 -0.49  0.02   
      6   H                0.07 -0.00  0.08    0.14 -0.01  0.16    0.46 -0.04  0.54   
      7   H                0.05  0.04 -0.02   -0.02 -0.01  0.00    0.20  0.17 -0.07   
      8   C               -0.00  0.00 -0.00   -0.01 -0.01 -0.02    0.01 -0.00  0.02   
      9   H               -0.00  0.00 -0.00    0.19 -0.02  0.21   -0.17  0.02 -0.19   
     10   H                0.01 -0.02  0.00   -0.03  0.08 -0.01   -0.01  0.03  0.00   
     11   O               -0.00 -0.00  0.00   -0.00  0.00  0.00   -0.00  0.00 -0.00   
     12   H               -0.00  0.00 -0.00   -0.00 -0.00 -0.00    0.00 -0.00  0.00   
     13   C               -0.01  0.04 -0.00    0.03 -0.06  0.02   -0.00  0.01 -0.00   
     14   H                0.14 -0.44  0.04   -0.22  0.75 -0.07    0.02 -0.09  0.01   
     15   H               -0.01  0.01 -0.00   -0.17  0.00 -0.19    0.04 -0.00  0.04   

  Vibration                       43                  44                  45          
  Freq [cm^-1]                3264.6734           3274.2161           4104.9468       
  Irrep                           A                   A                   A           
  Reduced mass [u]              1.1026              1.0975              1.0668        
  Force const [mDyne/A]         6.9237              6.9320             10.5908        
  Turning point v=0 [a0]        0.1829              0.1830              0.1658        
  RMS dev v=0 [a0 u^1/2]        0.1358              0.1356              0.1211        
  Char temp [K]               4697.1310           4710.8608           5906.0954       
  ----------------------------------------------------------------------------------
      1   C                0.00 -0.01 -0.00   -0.01  0.01 -0.01    0.00 -0.00 -0.00   
      2   H               -0.04  0.13 -0.01    0.03 -0.09  0.01   -0.00  0.00  0.00   
      3   H                0.01 -0.00  0.01    0.10 -0.00  0.10    0.00  0.00 -0.00   
      4   C               -0.04 -0.08  0.01   -0.01  0.01 -0.01    0.00  0.00  0.00   
      5   H               -0.19  0.51 -0.03    0.04 -0.11  0.00    0.00 -0.00 -0.00   
      6   H                0.09 -0.03  0.12    0.08 -0.01  0.10   -0.00 -0.00 -0.00   
      7   H                0.63  0.47 -0.17    0.01  0.01 -0.01    0.00  0.00 -0.00   
      8   C               -0.00  0.00 -0.00   -0.06  0.02 -0.06   -0.00  0.00 -0.00   
      9   H                0.04 -0.00  0.05    0.59 -0.06  0.68    0.01 -0.00  0.01   
     10   H               -0.00  0.01 -0.00    0.06 -0.19  0.00    0.00  0.00 -0.00   
     11   O               -0.00 -0.00  0.00    0.00 -0.00  0.00   -0.05  0.00 -0.04   
     12   H               -0.00  0.00 -0.00   -0.00  0.01 -0.01    0.73 -0.07  0.67   
     13   C                0.00 -0.00  0.00   -0.01  0.02 -0.01    0.00  0.00  0.00   
     14   H               -0.02  0.06 -0.01    0.07 -0.22  0.02   -0.00 -0.00 -0.00   
     15   H               -0.01 -0.00 -0.01    0.10 -0.00  0.11   -0.00  0.00 -0.00   

  ==> Thermochemistry Components <==

  Entropy, S
    Electronic S            0.000 [cal/(mol K)]        0.000 [J/(mol K)]       0.00000000 [mEh/K] (multiplicity = 1)
    Translational S        38.823 [cal/(mol K)]      162.437 [J/(mol K)]       0.06186912 [mEh/K] (mol. weight = 74.0732 [u], P = 101325.00 [Pa])
    Rotational S           25.941 [cal/(mol K)]      108.538 [J/(mol K)]       0.04133980 [mEh/K] (symmetry no. = 1)
    Vibrational S          13.690 [cal/(mol K)]       57.281 [J/(mol K)]       0.02181702 [mEh/K]
  Total S                  78.455 [cal/(mol K)]      328.256 [J/(mol K)]       0.12502595 [mEh/K]
  Correction S              0.000 [cal/(mol K)]        0.000 [J/(mol K)]       0.00000000 [mEh/K]

  Constant volume heat capacity, Cv
    Electronic Cv           0.000 [cal/(mol K)]        0.000 [J/(mol K)]       0.00000000 [mEh/K]
    Translational Cv        2.981 [cal/(mol K)]       12.472 [J/(mol K)]       0.00475022 [mEh/K]
    Rotational Cv           2.981 [cal/(mol K)]       12.472 [J/(mol K)]       0.00475022 [mEh/K]
    Vibrational Cv         15.772 [cal/(mol K)]       65.992 [J/(mol K)]       0.02513502 [mEh/K]
  Total Cv                 21.734 [cal/(mol K)]       90.935 [J/(mol K)]       0.03463547 [mEh/K]
  Correction Cv             0.000 [cal/(mol K)]        0.000 [J/(mol K)]       0.00000000 [mEh/K]

  Constant pressure heat capacity, Cp
    Electronic Cp           0.000 [cal/(mol K)]        0.000 [J/(mol K)]       0.00000000 [mEh/K]
    Translational Cp        4.968 [cal/(mol K)]       20.786 [J/(mol K)]       0.00791704 [mEh/K]
    Rotational Cp           2.981 [cal/(mol K)]       12.472 [J/(mol K)]       0.00475022 [mEh/K]
    Vibrational Cp         15.772 [cal/(mol K)]       65.992 [J/(mol K)]       0.02513502 [mEh/K]
  Total Cp                 23.721 [cal/(mol K)]       99.250 [J/(mol K)]       0.03780228 [mEh/K]
  Correction Cp             0.000 [cal/(mol K)]        0.000 [J/(mol K)]       0.00000000 [mEh/K]

  ==> Thermochemistry Energy Analysis <==

  Raw electronic energy, E0
  Total E0, Electronic energy at well bottom at 0 [K]                 -232.14496829 [Eh]

  Zero-point energy, ZPE_vib = Sum_i nu_i / 2
    Electronic ZPE          0.000 [kcal/mol]        0.000 [kJ/mol]       0.00000000 [Eh]
    Translational ZPE       0.000 [kcal/mol]        0.000 [kJ/mol]       0.00000000 [Eh]
    Rotational ZPE          0.000 [kcal/mol]        0.000 [kJ/mol]       0.00000000 [Eh]
    Vibrational ZPE        92.399 [kcal/mol]      386.597 [kJ/mol]       0.14724716 [Eh]       32317.011 [cm^-1]
  Correction ZPE           92.399 [kcal/mol]      386.597 [kJ/mol]       0.14724716 [Eh]       32317.011 [cm^-1]
  Total ZPE, Electronic energy at 0 [K]                               -231.99772113 [Eh]

  Thermal Energy, E (includes ZPE)
    Electronic E            0.000 [kcal/mol]        0.000 [kJ/mol]       0.00000000 [Eh]
    Translational E         0.889 [kcal/mol]        3.718 [kJ/mol]       0.00141628 [Eh]
    Rotational E            0.889 [kcal/mol]        3.718 [kJ/mol]       0.00141628 [Eh]
    Vibrational E          94.721 [kcal/mol]      396.312 [kJ/mol]       0.15094735 [Eh]
  Correction E             96.498 [kcal/mol]      403.749 [kJ/mol]       0.15377991 [Eh]
  Total E, Electronic energy at  298.15 [K]                           -231.99118838 [Eh]

  Enthalpy, H_trans = E_trans + k_B * T
    Electronic H            0.000 [kcal/mol]        0.000 [kJ/mol]       0.00000000 [Eh]
    Translational H         1.481 [kcal/mol]        6.197 [kJ/mol]       0.00236046 [Eh]
    Rotational H            0.889 [kcal/mol]        3.718 [kJ/mol]       0.00141628 [Eh]
    Vibrational H          94.721 [kcal/mol]      396.312 [kJ/mol]       0.15094735 [Eh]
  Correction H             97.091 [kcal/mol]      406.228 [kJ/mol]       0.15472409 [Eh]
  Total H, Enthalpy at  298.15 [K]                                    -231.99024420 [Eh]

  Gibbs free energy, G = H - T * S
    Electronic G            0.000 [kcal/mol]        0.000 [kJ/mol]       0.00000000 [Eh]
    Translational G       -10.094 [kcal/mol]      -42.233 [kJ/mol]      -0.01608581 [Eh]
    Rotational G           -6.846 [kcal/mol]      -28.642 [kJ/mol]      -0.01090918 [Eh]
    Vibrational G          90.639 [kcal/mol]      379.234 [kJ/mol]       0.14444260 [Eh]
  Correction G             73.699 [kcal/mol]      308.359 [kJ/mol]       0.11744761 [Eh]
  Total G, Free enthalpy at  298.15 [K]                               -232.02752068 [Eh]

    Psi4 stopped on: Thursday, 06 December 2018 04:10PM
    Psi4 wall time for execution: 0:03:42.39

*** Psi4 exiting successfully. Buy a developer a beer!
