
    -----------------------------------------------------------------------
          Psi4: An Open-Source Ab Initio Electronic Structure Package
                               Psi4 1.2.1 release

                         Git: Rev {HEAD} 406f4de 


    R. M. Parrish, L. A. Burns, D. G. A. Smith, A. C. Simmonett,
    A. E. DePrince III, E. G. Hohenstein, U. Bozkaya, A. Yu. Sokolov,
    R. Di Remigio, R. M. Richard, J. F. Gonthier, A. M. James,
    H. R. McAlexander, A. Kumar, M. Saitow, X. Wang, B. P. Pritchard,
    P. Verma, H. F. Schaefer III, K. Patkowski, R. A. King, E. F. Valeev,
    F. A. Evangelista, J. M. Turney, T. D. Crawford, and C. D. Sherrill,
    J. Chem. Theory Comput. 13(7) pp 3185--3197 (2017).
    (doi: 10.1021/acs.jctc.7b00174)


                         Additional Contributions by
    P. Kraus, H. Kruse, M. H. Lechner, M. C. Schieber, and R. A. Shaw

    -----------------------------------------------------------------------


    Psi4 started on: Thursday, 06 December 2018 03:26PM

    Process ID: 218637
    Host:       wr86
    PSIDATADIR: /usr/local/hpc1/software_molmod/psi4/psi4conda/share/psi4
    Memory:     500.0 MiB
    Threads:    16
    
  ==> Input File <==

--------------------------------------------------------------------------
memory 100 Gb

molecule conf_03 {
0 1
  C    -2.457211958400    -0.629798040500     0.388974479400
  H    -2.143010436200    -1.668192390000     0.473380849800
  H    -3.210795087000    -0.601472193300    -0.395512589700
  C    -3.086793806500    -0.185086576100     1.708630459800
  H    -3.443283131600     0.838977434000     1.646375462900
  H    -2.368021726200    -0.235217307100     2.521354901200
  H    -3.930780589900    -0.814429249900     1.973173647100
  C    -0.633482863800    -0.202532172500    -1.327663825200
  H    -1.371043357900    -0.159443409700    -2.128014414700
  H    -0.294509413100    -1.234900984800    -1.252001208700
  O     0.445507193300     0.652961785900    -1.603369799600
  H     0.853772233600     0.397813912100    -2.418325224700
  C    -1.263005254500     0.234946692100    -0.016961888700
  H    -1.569138967100     1.273120724600    -0.113436077500
  H    -0.500202834900     0.205251775200     0.756395228700
}
set globals {
  reference rhf
  g_convergence gau_tight
  basis 6-31G(d)
}
optimize('scf')

--------------------------------------------------------------------------

  Memory set to  93.132 GiB by Python driver.
gradient() will perform analytic gradient computation.

*** tstart() called on wr86
*** at Thu Dec  6 15:26:28 2018

   => Loading Basis Set <=

    Name: 6-31G(D)
    Role: ORBITAL
    Keyword: BASIS
    atoms 1, 4, 8, 13               entry C          line   111 file /usr/local/hpc1/software_molmod/psi4/psi4conda/share/psi4/basis/6-31g_d_.gbs 
    atoms 2-3, 5-7, 9-10, 12, 14-15 entry H          line    44 file /usr/local/hpc1/software_molmod/psi4/psi4conda/share/psi4/basis/6-31g_d_.gbs 
    atoms 11                        entry O          line   145 file /usr/local/hpc1/software_molmod/psi4/psi4conda/share/psi4/basis/6-31g_d_.gbs 


         ---------------------------------------------------------
                                   SCF
            by Justin Turney, Rob Parrish, Andy Simmonett
                             and Daniel Smith
                              RHF Reference
                       16 Threads,  95367 MiB Core
         ---------------------------------------------------------

  ==> Geometry <==

    Molecular point group: c1
    Full point group: C1

    Geometry (in Angstrom), charge = 0, multiplicity = 1:

       Center              X                  Y                   Z               Mass       
    ------------   -----------------  -----------------  -----------------  -----------------
         C           -1.103445568426    -0.616841889647     0.598744113482    12.000000000000
         H           -0.789244046226    -1.655236239147     0.683150483882     1.007825032070
         H           -1.857028697026    -0.588516042447    -0.185742955618     1.007825032070
         C           -1.733027416526    -0.172130425247     1.918400093882    12.000000000000
         H           -2.089516741626     0.851933584853     1.856145096982     1.007825032070
         H           -1.014255336226    -0.222261156247     2.731124535282     1.007825032070
         H           -2.577014199926    -0.801473099047     2.182943281182     1.007825032070
         C            0.720283526174    -0.189576021647    -1.117894191118    12.000000000000
         H           -0.017276967926    -0.146487258847    -1.918244780618     1.007825032070
         H            1.059256976874    -1.221944833947    -1.042231574618     1.007825032070
         O            1.799273583274     0.665917936753    -1.393600165518    15.994914619560
         H            2.207538623574     0.410770062953    -2.208555590618     1.007825032070
         C            0.090761135474     0.247902842953     0.192807745382    12.000000000000
         H           -0.215372577126     1.286076875453     0.096333556582     1.007825032070
         H            0.853563555074     0.218207926053     0.966164862782     1.007825032070

  Running in c1 symmetry.

  Rotational constants: A =      0.63501  B =      0.06624  C =      0.06273 [cm^-1]
  Rotational constants: A =  19037.20899  B =   1985.75058  C =   1880.67074 [MHz]
  Nuclear repulsion =  185.760524135593784

  Charge       = 0
  Multiplicity = 1
  Electrons    = 42
  Nalpha       = 21
  Nbeta        = 21

  ==> Algorithm <==

  SCF Algorithm Type is DF.
  DIIS enabled.
  MOM disabled.
  Fractional occupation disabled.
  Guess Type is SAD.
  Energy threshold   = 1.00e-08
  Density threshold  = 1.00e-08
  Integral threshold = 0.00e+00

  ==> Primary Basis <==

  Basis Set: 6-31G(D)
    Blend: 6-31G(D)
    Number of shells: 50
    Number of basis function: 95
    Number of Cartesian functions: 95
    Spherical Harmonics?: false
    Max angular momentum: 2

   => Loading Basis Set <=

    Name: (6-31G(D) AUX)
    Role: JKFIT
    Keyword: DF_BASIS_SCF
    atoms 1, 4, 8, 13               entry C          line   121 file /usr/local/hpc1/software_molmod/psi4/psi4conda/share/psi4/basis/cc-pvdz-jkfit.gbs 
    atoms 2-3, 5-7, 9-10, 12, 14-15 entry H          line    51 file /usr/local/hpc1/software_molmod/psi4/psi4conda/share/psi4/basis/cc-pvdz-jkfit.gbs 
    atoms 11                        entry O          line   221 file /usr/local/hpc1/software_molmod/psi4/psi4conda/share/psi4/basis/cc-pvdz-jkfit.gbs 

  ==> Pre-Iterations <==

   -------------------------------------------------------
    Irrep   Nso     Nmo     Nalpha   Nbeta   Ndocc  Nsocc
   -------------------------------------------------------
     A         95      95       0       0       0       0
   -------------------------------------------------------
    Total      95      95      21      21      21       0
   -------------------------------------------------------

  ==> Integral Setup <==

  ==> DiskDFJK: Density-Fitted J/K Matrices <==

    J tasked:                  Yes
    K tasked:                  Yes
    wK tasked:                  No
    OpenMP threads:             16
    Integrals threads:          16
    Memory (MB):             71525
    Algorithm:                Core
    Integral Cache:           NONE
    Schwarz Cutoff:          1E-12
    Fitting Condition:       1E-12

   => Auxiliary Basis Set <=

  Basis Set: (6-31G(D) AUX)
    Blend: CC-PVDZ-JKFIT
    Number of shells: 210
    Number of basis function: 655
    Number of Cartesian functions: 655
    Spherical Harmonics?: false
    Max angular momentum: 3

  Minimum eigenvalue in the overlap matrix is 3.5863879427E-03.
  Using Symmetric Orthogonalization.

  SCF Guess: Superposition of Atomic Densities via on-the-fly atomic UHF.

  ==> Iterations <==

                           Total Energy        Delta E     RMS |[F,P]|

   @DF-RHF iter   0:  -234.10836210102400   -2.34108e+02   1.93125e-01 
   @DF-RHF iter   1:  -232.03015985490413    2.07820e+00   1.57483e-02 
   @DF-RHF iter   2:  -232.13311168801616   -1.02952e-01   3.83393e-03 DIIS
   @DF-RHF iter   3:  -232.14313977592960   -1.00281e-02   1.47113e-03 DIIS
   @DF-RHF iter   4:  -232.14486732917769   -1.72755e-03   3.67117e-04 DIIS
   @DF-RHF iter   5:  -232.14498577960848   -1.18450e-04   1.19242e-04 DIIS
   @DF-RHF iter   6:  -232.14499864340547   -1.28638e-05   2.94902e-05 DIIS
   @DF-RHF iter   7:  -232.14499999927688   -1.35587e-06   7.97506e-06 DIIS
   @DF-RHF iter   8:  -232.14500014630801   -1.47031e-07   2.41798e-06 DIIS
   @DF-RHF iter   9:  -232.14500015572895   -9.42094e-09   9.84488e-07 DIIS
   @DF-RHF iter  10:  -232.14500015647658   -7.47633e-10   1.79626e-07 DIIS
   @DF-RHF iter  11:  -232.14500015651367   -3.70903e-11   3.85595e-08 DIIS
   @DF-RHF iter  12:  -232.14500015651691   -3.24007e-12   8.70975e-09 DIIS

  ==> Post-Iterations <==

    Orbital Energies [Eh]
    ---------------------

    Doubly Occupied:                                                      

       1A    -20.552175     2A    -11.267448     3A    -11.218601  
       4A    -11.211098     5A    -11.209830     6A     -1.359054  
       7A     -1.070293     8A     -0.974650     9A     -0.855443  
      10A     -0.795991    11A     -0.691785    12A     -0.660074  
      13A     -0.603312    14A     -0.592443    15A     -0.560666  
      16A     -0.522201    17A     -0.510299    18A     -0.474668  
      19A     -0.470159    20A     -0.461457    21A     -0.434457  

    Virtual:                                                              

      22A      0.229211    23A      0.234667    24A      0.275335  
      25A      0.280912    26A      0.297816    27A      0.331091  
      28A      0.341493    29A      0.343573    30A      0.350139  
      31A      0.366287    32A      0.377052    33A      0.429560  
      34A      0.442445    35A      0.482053    36A      0.706102  
      37A      0.744474    38A      0.750808    39A      0.758629  
      40A      0.782996    41A      0.847961    42A      0.898352  
      43A      0.923322    44A      0.968858    45A      0.985155  
      46A      1.027036    47A      1.079737    48A      1.118237  
      49A      1.137525    50A      1.165540    51A      1.169621  
      52A      1.181189    53A      1.199482    54A      1.205460  
      55A      1.221961    56A      1.236727    57A      1.247437  
      58A      1.265763    59A      1.293135    60A      1.367190  
      61A      1.505386    62A      1.595385    63A      1.674998  
      64A      1.676348    65A      1.741921    66A      1.792090  
      67A      1.848993    68A      2.015896    69A      2.033294  
      70A      2.084700    71A      2.140940    72A      2.233958  
      73A      2.236074    74A      2.273828    75A      2.330775  
      76A      2.352089    77A      2.373849    78A      2.442447  
      79A      2.543361    80A      2.613626    81A      2.637785  
      82A      2.682516    83A      2.753664    84A      2.805808  
      85A      2.807874    86A      2.856172    87A      2.925753  
      88A      3.003007    89A      3.149426    90A      3.261126  
      91A      4.204656    92A      4.578508    93A      4.694968  
      94A      4.806164    95A      4.959137  

    Final Occupation by Irrep:
              A 
    DOCC [    21 ]

  Energy converged.

  @DF-RHF Final Energy:  -232.14500015651691

   => Energetics <=

    Nuclear Repulsion Energy =            185.7605241355937835
    One-Electron Energy =                -682.8188385830269453
    Two-Electron Energy =                 264.9133142909162757
    Total Energy =                       -232.1450001565169146



Properties will be evaluated at   0.000000,   0.000000,   0.000000 [a0]

Properties computed using the SCF density matrix

  Nuclear Dipole Moment: [e a0]
     X:    -4.1531      Y:    -1.7489      Z:     2.9567

  Electronic Dipole Moment: [e a0]
     X:     3.9558      Y:     1.2397      Z:    -3.3394

  Dipole Moment: [e a0]
     X:    -0.1973      Y:    -0.5092      Z:    -0.3827     Total:     0.6668

  Dipole Moment: [D]
     X:    -0.5015      Y:    -1.2943      Z:    -0.9727     Total:     1.6949


*** tstop() called on wr86 at Thu Dec  6 15:26:30 2018
Module time:
	user time   =      15.61 seconds =       0.26 minutes
	system time =       0.66 seconds =       0.01 minutes
	total time  =          2 seconds =       0.03 minutes
Total time:
	user time   =      15.61 seconds =       0.26 minutes
	system time =       0.66 seconds =       0.01 minutes
	total time  =          2 seconds =       0.03 minutes

*** tstart() called on wr86
*** at Thu Dec  6 15:26:30 2018


         ------------------------------------------------------------
                                   SCF GRAD                          
                          Rob Parrish, Justin Turney,                
                       Andy Simmonett, and Alex Sokolov              
         ------------------------------------------------------------

  ==> Geometry <==

    Molecular point group: c1
    Full point group: C1

    Geometry (in Angstrom), charge = 0, multiplicity = 1:

       Center              X                  Y                   Z               Mass       
    ------------   -----------------  -----------------  -----------------  -----------------
         C           -1.103445568426    -0.616841889647     0.598744113482    12.000000000000
         H           -0.789244046226    -1.655236239147     0.683150483882     1.007825032070
         H           -1.857028697026    -0.588516042447    -0.185742955618     1.007825032070
         C           -1.733027416526    -0.172130425247     1.918400093882    12.000000000000
         H           -2.089516741626     0.851933584853     1.856145096982     1.007825032070
         H           -1.014255336226    -0.222261156247     2.731124535282     1.007825032070
         H           -2.577014199926    -0.801473099047     2.182943281182     1.007825032070
         C            0.720283526174    -0.189576021647    -1.117894191118    12.000000000000
         H           -0.017276967926    -0.146487258847    -1.918244780618     1.007825032070
         H            1.059256976874    -1.221944833947    -1.042231574618     1.007825032070
         O            1.799273583274     0.665917936753    -1.393600165518    15.994914619560
         H            2.207538623574     0.410770062953    -2.208555590618     1.007825032070
         C            0.090761135474     0.247902842953     0.192807745382    12.000000000000
         H           -0.215372577126     1.286076875453     0.096333556582     1.007825032070
         H            0.853563555074     0.218207926053     0.966164862782     1.007825032070

  Nuclear repulsion =  185.760524135593812

  ==> Basis Set <==

  Basis Set: 6-31G(D)
    Blend: 6-31G(D)
    Number of shells: 50
    Number of basis function: 95
    Number of Cartesian functions: 95
    Spherical Harmonics?: false
    Max angular momentum: 2

  ==> DFJKGrad: Density-Fitted SCF Gradients <==

    Gradient:                    1
    J tasked:                  Yes
    K tasked:                  Yes
    wK tasked:                  No
    OpenMP threads:             16
    Integrals threads:          16
    Memory (MB):             71525
    Schwarz Cutoff:          0E+00
    Fitting Condition:       1E-12

   => Auxiliary Basis Set <=

  Basis Set: (6-31G(D) AUX)
    Blend: CC-PVDZ-JKFIT
    Number of shells: 210
    Number of basis function: 655
    Number of Cartesian functions: 655
    Spherical Harmonics?: false
    Max angular momentum: 3


  -Total Gradient:
     Atom            X                  Y                   Z
    ------   -----------------  -----------------  -----------------
       1       -0.000004010770     0.000013387908     0.000021413409
       2        0.000000840273    -0.000008479127    -0.000006703827
       3       -0.000002059692    -0.000005574557    -0.000009064893
       4       -0.000003009011    -0.000007692670    -0.000005768889
       5       -0.000001030144     0.000006206477     0.000003278397
       6        0.000002393147     0.000002762505     0.000006077114
       7       -0.000004619774    -0.000001120919     0.000004285609
       8        0.000061881446     0.000053199340    -0.000010741602
       9       -0.000009164841    -0.000003477294    -0.000014067456
      10        0.000003718390    -0.000016342749    -0.000003577217
      11       -0.000042785073    -0.000020349824     0.000027566645
      12       -0.000004449511    -0.000011924577    -0.000009145411
      13       -0.000007427326    -0.000020309034    -0.000015852266
      14        0.000002498632     0.000012198382     0.000004224804
      15        0.000007224249     0.000007516137     0.000008075584


*** tstop() called on wr86 at Thu Dec  6 15:26:31 2018
Module time:
	user time   =      16.22 seconds =       0.27 minutes
	system time =       0.69 seconds =       0.01 minutes
	total time  =          1 seconds =       0.02 minutes
Total time:
	user time   =      31.85 seconds =       0.53 minutes
	system time =       1.35 seconds =       0.02 minutes
	total time  =          3 seconds =       0.05 minutes

			-----------------------------------------
			 OPTKING 2.0: for geometry optimizations 
			  - R.A. King,  Bethel University        
			-----------------------------------------

	Internal coordinates to be generated automatically.
	Detected frag 1 with atoms:  1 2 3 4 5 6 7 8 9 10 11 12 13 14 15
	---Fragment 1 Bond Connectivity---
	 1 : 2 3 4 13
	 2 : 1
	 3 : 1
	 4 : 1 5 6 7
	 5 : 4
	 6 : 4
	 7 : 4
	 8 : 9 10 11 13
	 9 : 8
	 10 : 8
	 11 : 8 12
	 12 : 11
	 13 : 1 8 14 15
	 14 : 13
	 15 : 13

	---Fragment 1 Geometry and Gradient---
	 C          -2.0852099269       -1.1656622387        1.1314623982
	 H          -1.4914550994       -3.1279431772        1.2909673221
	 H          -3.5092756583       -1.1121341450       -0.3510033172
	 C          -3.2749471980       -0.3252793629        3.6252507907
	 H          -3.9486143918        1.6099211588        3.5076058962
	 H          -1.9166648143       -0.4200127153        5.1610774065
	 H          -4.8698510784       -1.5145646601        4.1251649651
	 C           1.3611386025       -0.3582467623       -2.1125138668
	 H          -0.0326487378       -0.2768208012       -3.6249572912
	 H           2.0017055906       -2.3091410857       -1.9695322431
	 O           3.4001343105        1.2584025274       -2.6335226516
	 H           4.1716434263        0.7762429226       -4.1735652155
	 C           0.1715136896        0.4684684807        0.3643538351
	 H          -0.4069951873        2.4303330804        0.1820440393
	 H           1.6130013561        0.4123532203        1.8257869899
	            -0.0000040108        0.0000133879        0.0000214134
	             0.0000008403       -0.0000084791       -0.0000067038
	            -0.0000020597       -0.0000055746       -0.0000090649
	            -0.0000030090       -0.0000076927       -0.0000057689
	            -0.0000010301        0.0000062065        0.0000032784
	             0.0000023931        0.0000027625        0.0000060771
	            -0.0000046198       -0.0000011209        0.0000042856
	             0.0000618814        0.0000531993       -0.0000107416
	            -0.0000091648       -0.0000034773       -0.0000140675
	             0.0000037184       -0.0000163427       -0.0000035772
	            -0.0000427851       -0.0000203498        0.0000275666
	            -0.0000044495       -0.0000119246       -0.0000091454
	            -0.0000074273       -0.0000203090       -0.0000158523
	             0.0000024986        0.0000121984        0.0000042248
	             0.0000072242        0.0000075161        0.0000080756

	Previous optimization step data not found.  Starting new optimization.

	---Fragment 1 Intrafragment Coordinates---
	 - Coordinate -           - BOHR/RAD -       - ANG/DEG -
	 R(1,2)           =         2.056340	       1.088168
	 R(1,3)           =         2.056340	       1.088168
	 R(1,4)           =         2.888027	       1.528278
	 R(1,13)          =         2.889920	       1.529280
	 R(4,5)           =         2.052479	       1.086125
	 R(4,6)           =         2.052479	       1.086125
	 R(4,7)           =         2.051349	       1.085527
	 R(8,9)           =         2.058339	       1.089226
	 R(8,10)          =         2.058339	       1.089226
	 R(8,11)          =         2.653773	       1.404316
	 R(8,13)          =         2.869414	       1.518429
	 R(11,12)         =         1.788697	       0.946537
	 R(13,14)         =         2.053490	       1.086660
	 R(13,15)         =         2.053490	       1.086660
	 B(1,4,5)         =         1.939150	     111.105107
	 B(1,4,6)         =         1.939150	     111.105110
	 B(1,4,7)         =         1.941232	     111.224390
	 B(1,13,8)        =         1.971388	     112.952191
	 B(1,13,14)       =         1.921758	     110.108614
	 B(1,13,15)       =         1.921758	     110.108631
	 B(2,1,3)         =         1.855343	     106.303320
	 B(2,1,4)         =         1.906728	     109.247476
	 B(2,1,13)        =         1.912089	     109.554633
	 B(3,1,4)         =         1.906728	     109.247472
	 B(3,1,13)        =         1.912089	     109.554613
	 B(4,1,13)        =         1.967477	     112.728151
	 B(5,4,6)         =         1.879284	     107.675016
	 B(5,4,7)         =         1.881165	     107.782839
	 B(6,4,7)         =         1.881165	     107.782838
	 B(8,11,12)       =         1.913703	     109.647121
	 B(8,13,14)       =         1.891696	     108.386180
	 B(8,13,15)       =         1.891696	     108.386188
	 B(9,8,10)        =         1.874720	     107.413543
	 B(9,8,11)        =         1.930414	     110.604551
	 B(9,8,13)        =         1.919984	     110.006953
	 B(10,8,11)       =         1.930414	     110.604555
	 B(10,8,13)       =         1.919984	     110.006952
	 B(11,8,13)       =         1.888618	     108.209836
	 B(14,13,15)      =         1.861942	     106.681407
	 D(1,13,8,9)      =         1.030902	      59.066317
	 D(1,13,8,10)     =        -1.030903	     -59.066418
	 D(1,13,8,11)     =         3.141593	     180.000000
	 D(2,1,4,5)       =        -3.107107	    -178.024117
	 D(2,1,4,6)       =         1.084197	      62.119903
	 D(2,1,4,7)       =        -1.011455	     -57.952107
	 D(2,1,13,8)      =         1.014478	      58.125312
	 D(2,1,13,14)     =         3.131917	     179.445633
	 D(2,1,13,15)     =        -1.102961	     -63.195031
	 D(3,1,4,5)       =        -1.084201	     -62.120144
	 D(3,1,4,6)       =         3.107103	     178.023876
	 D(3,1,4,7)       =         1.011451	      57.951866
	 D(3,1,13,8)      =        -1.014480	     -58.125400
	 D(3,1,13,14)     =         1.102959	      63.194921
	 D(3,1,13,15)     =        -3.131919	    -179.445744
	 D(4,1,13,8)      =         3.141593	     180.000000
	 D(4,1,13,14)     =        -1.024154	     -58.679713
	 D(4,1,13,15)     =         1.024153	      58.679622
	 D(5,4,1,13)      =         1.045938	      59.927856
	 D(6,4,1,13)      =        -1.045943	     -59.928124
	 D(7,4,1,13)      =         3.141593	     180.000000
	 D(9,8,11,12)     =        -1.037390	     -59.438092
	 D(9,8,13,14)     =        -1.103464	     -63.223837
	 D(9,8,13,15)     =        -3.117917	    -178.643503
	 D(10,8,11,12)    =         1.037390	      59.438076
	 D(10,8,13,14)    =         3.117916	     178.643429
	 D(10,8,13,15)    =         1.103463	      63.223763
	 D(11,8,13,14)    =         1.007226	      57.709794
	 D(11,8,13,15)    =        -1.007227	     -57.709872
	 D(12,11,8,13)    =         3.141593	     180.000000

	Current energy   :      -232.1450001565

	Generating empirical Hessian (Schlegel '84) for each fragment.
	Taking RFO optimization step.
	Going to follow RFO solution 1.
	Using RFO vector 1.
	Norm of target step-size    0.00039
	Projected energy change by RFO approximation:        -0.0000000338

	Back-transformation to cartesian coordinates...
	Successfully converged to displaced geometry.
	First geometry is closer to target in internal coordinates, so am using that one.
	First geometry has RMS(Delta(q)) = 6.50e-07

	--- Internal Coordinate Step in ANG or DEG, aJ/ANG or AJ/DEG ---
	 ---------------------------------------------------------------------------
	   Coordinate                Previous        Force       Change         New 
	   ----------                --------       ------       ------       ------
	    1 R(1,2)          =      1.088168    -0.000064    -0.000012     1.088156
	    2 R(1,3)          =      1.088168    -0.000064    -0.000012     1.088156
	    3 R(1,4)          =      1.528278    -0.000078    -0.000017     1.528261
	    4 R(1,13)         =      1.529280    -0.000106    -0.000023     1.529257
	    5 R(4,5)          =      1.086125    -0.000049    -0.000009     1.086116
	    6 R(4,6)          =      1.086125    -0.000049    -0.000009     1.086116
	    7 R(4,7)          =      1.085527    -0.000044    -0.000008     1.085519
	    8 R(8,9)          =      1.089226    -0.000135    -0.000025     1.089201
	    9 R(8,10)         =      1.089226    -0.000135    -0.000025     1.089201
	   10 R(8,11)         =      1.404316     0.000491     0.000070     1.404386
	   11 R(8,13)         =      1.518429    -0.000100    -0.000021     1.518408
	   12 R(11,12)        =      0.946537    -0.000076    -0.000008     0.946529
	   13 R(13,14)        =      1.086660    -0.000087    -0.000016     1.086644
	   14 R(13,15)        =      1.086660    -0.000087    -0.000016     1.086644
	   15 B(1,4,5)        =    111.105107    -0.000000    -0.000691   111.104416
	   16 B(1,4,6)        =    111.105110    -0.000000    -0.000692   111.104418
	   17 B(1,4,7)        =    111.224390    -0.000000    -0.002019   111.222371
	   18 B(1,13,8)       =    112.952191    -0.000001    -0.004649   112.947541
	   19 B(1,13,14)      =    110.108614     0.000000    -0.000279   110.108335
	   20 B(1,13,15)      =    110.108631     0.000000    -0.000291   110.108340
	   21 B(2,1,3)        =    106.303320     0.000000     0.004396   106.307716
	   22 B(2,1,4)        =    109.247476    -0.000000    -0.001891   109.245585
	   23 B(2,1,13)       =    109.554633     0.000000     0.001254   109.555887
	   24 B(3,1,4)        =    109.247472    -0.000000    -0.001881   109.245591
	   25 B(3,1,13)       =    109.554613     0.000000     0.001274   109.555888
	   26 B(4,1,13)       =    112.728151    -0.000000    -0.002743   112.725407
	   27 B(5,4,6)        =    107.675016     0.000000     0.002420   107.677436
	   28 B(5,4,7)        =    107.782839     0.000000     0.000595   107.783434
	   29 B(6,4,7)        =    107.782838     0.000000     0.000596   107.783435
	   30 B(8,11,12)      =    109.647121     0.000002     0.008141   109.655262
	   31 B(8,13,14)      =    108.386180     0.000000     0.000177   108.386357
	   32 B(8,13,15)      =    108.386188     0.000000     0.000172   108.386360
	   33 B(9,8,10)       =    107.413543     0.000000     0.002683   107.416226
	   34 B(9,8,11)       =    110.604551     0.000000     0.000200   110.604751
	   35 B(9,8,13)       =    110.006953    -0.000000    -0.001456   110.005497
	   36 B(10,8,11)      =    110.604555     0.000000     0.000200   110.604756
	   37 B(10,8,13)      =    110.006952    -0.000000    -0.001448   110.005504
	   38 B(11,8,13)      =    108.209836     0.000000    -0.000214   108.209622
	   39 B(14,13,15)     =    106.681407     0.000000     0.005466   106.686873
	   40 D(1,13,8,9)     =     59.066317     0.000000     0.000797    59.067114
	   41 D(1,13,8,10)    =    -59.066418    -0.000000    -0.000726   -59.067144
	   42 D(1,13,8,11)    =    180.000000     0.000000     0.000000   180.000000
	   43 D(2,1,4,5)      =   -178.024117     0.000000    -0.000245  -178.024362
	   44 D(2,1,4,6)      =     62.119903    -0.000000    -0.002378    62.117525
	   45 D(2,1,4,7)      =    -57.952107    -0.000000    -0.001312   -57.953420
	   46 D(2,1,13,8)     =     58.125312     0.000000     0.003465    58.128777
	   47 D(2,1,13,14)    =    179.445633     0.000000     0.000301   179.445934
	   48 D(2,1,13,15)    =    -63.195031     0.000000     0.006643   -63.188388
	   49 D(3,1,4,5)      =    -62.120144     0.000000     0.002913   -62.117231
	   50 D(3,1,4,6)      =    178.023876    -0.000000     0.000781   178.024657
	   51 D(3,1,4,7)      =     57.951866     0.000000     0.001846    57.953712
	   52 D(3,1,13,8)     =    -58.125400    -0.000000    -0.003278   -58.128678
	   53 D(3,1,13,14)    =     63.194921    -0.000000    -0.006442    63.188479
	   54 D(3,1,13,15)    =   -179.445744    -0.000000    -0.000099  -179.445843
	   55 D(4,1,13,8)     =    180.000000    -0.000000     0.000000   180.000000
	   56 D(4,1,13,14)    =    -58.679713    -0.000000    -0.003084   -58.682797
	   57 D(4,1,13,15)    =     58.679622     0.000000     0.003259    58.682880
	   58 D(5,4,1,13)     =     59.927856     0.000000     0.001350    59.929206
	   59 D(6,4,1,13)     =    -59.928124    -0.000000    -0.000783   -59.928907
	   60 D(7,4,1,13)     =    180.000000     0.000000     0.000000   180.000000
	   61 D(9,8,11,12)    =    -59.438092    -0.000000    -0.001711   -59.439802
	   62 D(9,8,13,14)    =    -63.223837     0.000000     0.004099   -63.219738
	   63 D(9,8,13,15)    =   -178.643503    -0.000000    -0.002522  -178.646025
	   64 D(10,8,11,12)   =     59.438076     0.000000     0.001881    59.439957
	   65 D(10,8,13,14)   =    178.643429     0.000000     0.002575   178.646004
	   66 D(10,8,13,15)   =     63.223763    -0.000000    -0.004046    63.219717
	   67 D(11,8,13,14)   =     57.709794     0.000000     0.003334    57.713128
	   68 D(11,8,13,15)   =    -57.709872    -0.000000    -0.003287   -57.713159
	   69 D(12,11,8,13)   =    180.000000     0.000000     0.000000   180.000000
	 ---------------------------------------------------------------------------
	Successfully symmetrized geometry.

  ==> Convergence Check <==

  Measures of convergence in internal coordinates in au.
  Criteria marked as inactive (o), active & met (*), and active & unmet ( ).
  --------------------------------------------------------------------------------------------- ~
   Step     Total Energy     Delta E     MAX Force     RMS Force      MAX Disp      RMS Disp    ~
  --------------------------------------------------------------------------------------------- ~
    Convergence Criteria             o    1.50e-05 *    1.00e-05 *    6.00e-05 *    4.00e-05 *  ~
  --------------------------------------------------------------------------------------------- ~
      1    -232.14500016   -2.32e+02 o    5.96e-05      9.40e-06 *    1.42e-04      4.72e-05    ~
  ---------------------------------------------------------------------------------------------

	Writing optimization data to binary file.
	Structure for next step:
	Cartesian Geometry (in Angstrom)
	    C    -1.1034263077  -0.6168440788   0.5987178506
	    H    -0.7892200723  -1.6552207933   0.6831714260
	    H    -1.8570231457  -0.5884814472  -0.1857383405
	    C    -1.7329907086  -0.1721252056   1.9183601355
	    H    -2.0894886818   0.8519247839   1.8560811459
	    H    -1.0142146654  -0.2222716945   2.7310680592
	    H    -2.5769649570  -0.8014802982   2.1828812851
	    C     0.7202242984  -0.1896025599  -1.1178544803
	    H    -0.0173554330  -0.1464963675  -1.9181525522
	    H     1.0591711497  -1.2219505072  -1.0421459147
	    O     1.7992797437   0.6659046587  -1.3936209105
	    H     2.2076037528   0.4108320599  -2.2085607235
	    C     0.0907561776   0.2479184966   0.1928351374
	    H    -0.2154064676   1.2860642258   0.0963272464
	    H     0.8535511664   0.2181709900   0.9661751470
			--------------------------
			 OPTKING Finished Execution 
			--------------------------

    Structure for next step:
    Molecular point group: c1
    Full point group: C1

    Geometry (in Angstrom), charge = 0, multiplicity = 1:

    C           -1.103426334780    -0.616840226742     0.598721917086
    H           -0.789220099410    -1.655216941243     0.683175492438
    H           -1.857023172790    -0.588477595108    -0.185734274002
    C           -1.732990735624    -0.172121353565     1.918364201957
    H           -2.089488708919     0.851928635962     1.856085212357
    H           -1.014214692511    -0.222267842446     2.731072125714
    H           -2.576964984056    -0.801476446115     2.182885351612
    C            0.720224271344    -0.189598707880    -1.117850413839
    H           -0.017355460102    -0.146492515449    -1.918148485694
    H            1.059171122593    -1.221946655185    -1.042141848205
    O            1.799279716653     0.665908510747    -1.393616844024
    H            2.207603725745     0.410835911913    -2.208556657027
    C            0.090756150539     0.247922348668     0.192839203863
    H           -0.215406494675     1.286068077887     0.096331312905
    H            0.853551139348     0.218174841994     0.966179213513

gradient() will perform analytic gradient computation.

*** tstart() called on wr86
*** at Thu Dec  6 15:26:31 2018

   => Loading Basis Set <=

    Name: 6-31G(D)
    Role: ORBITAL
    Keyword: BASIS
    atoms 1, 4, 8, 13               entry C          line   111 file /usr/local/hpc1/software_molmod/psi4/psi4conda/share/psi4/basis/6-31g_d_.gbs 
    atoms 2-3, 5-7, 9-10, 12, 14-15 entry H          line    44 file /usr/local/hpc1/software_molmod/psi4/psi4conda/share/psi4/basis/6-31g_d_.gbs 
    atoms 11                        entry O          line   145 file /usr/local/hpc1/software_molmod/psi4/psi4conda/share/psi4/basis/6-31g_d_.gbs 


         ---------------------------------------------------------
                                   SCF
            by Justin Turney, Rob Parrish, Andy Simmonett
                             and Daniel Smith
                              RHF Reference
                       16 Threads,  95367 MiB Core
         ---------------------------------------------------------

  ==> Geometry <==

    Molecular point group: c1
    Full point group: C1

    Geometry (in Angstrom), charge = 0, multiplicity = 1:

       Center              X                  Y                   Z               Mass       
    ------------   -----------------  -----------------  -----------------  -----------------
         C           -1.103426334780    -0.616840226742     0.598721917086    12.000000000000
         H           -0.789220099410    -1.655216941243     0.683175492438     1.007825032070
         H           -1.857023172790    -0.588477595108    -0.185734274002     1.007825032070
         C           -1.732990735624    -0.172121353565     1.918364201957    12.000000000000
         H           -2.089488708919     0.851928635962     1.856085212357     1.007825032070
         H           -1.014214692511    -0.222267842446     2.731072125714     1.007825032070
         H           -2.576964984056    -0.801476446115     2.182885351612     1.007825032070
         C            0.720224271344    -0.189598707880    -1.117850413839    12.000000000000
         H           -0.017355460102    -0.146492515449    -1.918148485694     1.007825032070
         H            1.059171122593    -1.221946655185    -1.042141848205     1.007825032070
         O            1.799279716653     0.665908510747    -1.393616844024    15.994914619560
         H            2.207603725745     0.410835911913    -2.208556657027     1.007825032070
         C            0.090756150539     0.247922348668     0.192839203863    12.000000000000
         H           -0.215406494675     1.286068077887     0.096331312905     1.007825032070
         H            0.853551139348     0.218174841994     0.966179213513     1.007825032070

  Running in c1 symmetry.

  Rotational constants: A =      0.63501  B =      0.06624  C =      0.06273 [cm^-1]
  Rotational constants: A =  19037.23020  B =   1985.80231  C =   1880.71907 [MHz]
  Nuclear repulsion =  185.761720128420365

  Charge       = 0
  Multiplicity = 1
  Electrons    = 42
  Nalpha       = 21
  Nbeta        = 21

  ==> Algorithm <==

  SCF Algorithm Type is DF.
  DIIS enabled.
  MOM disabled.
  Fractional occupation disabled.
  Guess Type is READ.
  Energy threshold   = 1.00e-08
  Density threshold  = 1.00e-08
  Integral threshold = 0.00e+00

  ==> Primary Basis <==

  Basis Set: 6-31G(D)
    Blend: 6-31G(D)
    Number of shells: 50
    Number of basis function: 95
    Number of Cartesian functions: 95
    Spherical Harmonics?: false
    Max angular momentum: 2

   => Loading Basis Set <=

    Name: (6-31G(D) AUX)
    Role: JKFIT
    Keyword: DF_BASIS_SCF
    atoms 1, 4, 8, 13               entry C          line   121 file /usr/local/hpc1/software_molmod/psi4/psi4conda/share/psi4/basis/cc-pvdz-jkfit.gbs 
    atoms 2-3, 5-7, 9-10, 12, 14-15 entry H          line    51 file /usr/local/hpc1/software_molmod/psi4/psi4conda/share/psi4/basis/cc-pvdz-jkfit.gbs 
    atoms 11                        entry O          line   221 file /usr/local/hpc1/software_molmod/psi4/psi4conda/share/psi4/basis/cc-pvdz-jkfit.gbs 

  Reading orbitals from file 180, no projection.

  ==> Pre-Iterations <==

   -------------------------------------------------------
    Irrep   Nso     Nmo     Nalpha   Nbeta   Ndocc  Nsocc
   -------------------------------------------------------
     A         95      95       0       0       0       0
   -------------------------------------------------------
    Total      95      95      21      21      21       0
   -------------------------------------------------------

  ==> Integral Setup <==

  ==> DiskDFJK: Density-Fitted J/K Matrices <==

    J tasked:                  Yes
    K tasked:                  Yes
    wK tasked:                  No
    OpenMP threads:             16
    Integrals threads:          16
    Memory (MB):             71525
    Algorithm:                Core
    Integral Cache:           NONE
    Schwarz Cutoff:          1E-12
    Fitting Condition:       1E-12

   => Auxiliary Basis Set <=

  Basis Set: (6-31G(D) AUX)
    Blend: CC-PVDZ-JKFIT
    Number of shells: 210
    Number of basis function: 655
    Number of Cartesian functions: 655
    Spherical Harmonics?: false
    Max angular momentum: 3

  Minimum eigenvalue in the overlap matrix is 3.5860902645E-03.
  Using Symmetric Orthogonalization.

  SCF Guess: Orbitals guess was supplied from a previous computation.

  ==> Iterations <==

                           Total Energy        Delta E     RMS |[F,P]|

   @DF-RHF iter   0:  -232.14503472816966   -2.32145e+02   6.14483e-06 
   @DF-RHF iter   1:  -232.14500016559725    3.45626e-05   9.30433e-07 
   @DF-RHF iter   2:  -232.14500016611265   -5.15399e-10   5.07230e-07 DIIS
   @DF-RHF iter   3:  -232.14500016619195   -7.92966e-11   1.06489e-07 DIIS
   @DF-RHF iter   4:  -232.14500016620735   -1.54046e-11   4.02995e-08 DIIS
   @DF-RHF iter   5:  -232.14500016620855   -1.19371e-12   1.02501e-08 DIIS
   @DF-RHF iter   6:  -232.14500016620872   -1.70530e-13   2.11039e-09 DIIS

  ==> Post-Iterations <==

    Orbital Energies [Eh]
    ---------------------

    Doubly Occupied:                                                      

       1A    -20.552165     2A    -11.267444     3A    -11.218594  
       4A    -11.211092     5A    -11.209823     6A     -1.359019  
       7A     -1.070309     8A     -0.974660     9A     -0.855443  
      10A     -0.795993    11A     -0.691771    12A     -0.660085  
      13A     -0.603317    14A     -0.592438    15A     -0.560661  
      16A     -0.522205    17A     -0.510286    18A     -0.474670  
      19A     -0.470170    20A     -0.461455    21A     -0.434466  

    Virtual:                                                              

      22A      0.229216    23A      0.234666    24A      0.275335  
      25A      0.280910    26A      0.297817    27A      0.331096  
      28A      0.341496    29A      0.343579    30A      0.350148  
      31A      0.366291    32A      0.377046    33A      0.429559  
      34A      0.442453    35A      0.482045    36A      0.706088  
      37A      0.744468    38A      0.750820    39A      0.758620  
      40A      0.783001    41A      0.847952    42A      0.898345  
      43A      0.923337    44A      0.968863    45A      0.985149  
      46A      1.027027    47A      1.079749    48A      1.118249  
      49A      1.137549    50A      1.165557    51A      1.169636  
      52A      1.181195    53A      1.199498    54A      1.205477  
      55A      1.221972    56A      1.236736    57A      1.247456  
      58A      1.265774    59A      1.293152    60A      1.367212  
      61A      1.505393    62A      1.595418    63A      1.675002  
      64A      1.676337    65A      1.741910    66A      1.792090  
      67A      1.849021    68A      2.015890    69A      2.033315  
      70A      2.084742    71A      2.140956    72A      2.233966  
      73A      2.236105    74A      2.273851    75A      2.330819  
      76A      2.352103    77A      2.373857    78A      2.442378  
      79A      2.543342    80A      2.613627    81A      2.637785  
      82A      2.682512    83A      2.753672    84A      2.805778  
      85A      2.807868    86A      2.856236    87A      2.925751  
      88A      3.002994    89A      3.149449    90A      3.261109  
      91A      4.204638    92A      4.578545    93A      4.694990  
      94A      4.806166    95A      4.959152  

    Final Occupation by Irrep:
              A 
    DOCC [    21 ]

  Energy converged.

  @DF-RHF Final Energy:  -232.14500016620872

   => Energetics <=

    Nuclear Repulsion Energy =            185.7617201284203645
    One-Electron Energy =                -682.8213069616922439
    Two-Electron Energy =                 264.9145866670631335
    Total Energy =                       -232.1450001662087175



Properties will be evaluated at   0.000000,   0.000000,   0.000000 [a0]

Properties computed using the SCF density matrix

  Nuclear Dipole Moment: [e a0]
     X:    -4.1531      Y:    -1.7488      Z:     2.9568

  Electronic Dipole Moment: [e a0]
     X:     3.9558      Y:     1.2396      Z:    -3.3394

  Dipole Moment: [e a0]
     X:    -0.1974      Y:    -0.5092      Z:    -0.3826     Total:     0.6669

  Dipole Moment: [D]
     X:    -0.5016      Y:    -1.2944      Z:    -0.9726     Total:     1.6950


*** tstop() called on wr86 at Thu Dec  6 15:26:32 2018
Module time:
	user time   =      11.35 seconds =       0.19 minutes
	system time =       0.33 seconds =       0.01 minutes
	total time  =          1 seconds =       0.02 minutes
Total time:
	user time   =      46.50 seconds =       0.78 minutes
	system time =       1.75 seconds =       0.03 minutes
	total time  =          4 seconds =       0.07 minutes

*** tstart() called on wr86
*** at Thu Dec  6 15:26:32 2018


         ------------------------------------------------------------
                                   SCF GRAD                          
                          Rob Parrish, Justin Turney,                
                       Andy Simmonett, and Alex Sokolov              
         ------------------------------------------------------------

  ==> Geometry <==

    Molecular point group: c1
    Full point group: C1

    Geometry (in Angstrom), charge = 0, multiplicity = 1:

       Center              X                  Y                   Z               Mass       
    ------------   -----------------  -----------------  -----------------  -----------------
         C           -1.103426334780    -0.616840226742     0.598721917086    12.000000000000
         H           -0.789220099410    -1.655216941243     0.683175492438     1.007825032070
         H           -1.857023172790    -0.588477595108    -0.185734274002     1.007825032070
         C           -1.732990735624    -0.172121353565     1.918364201957    12.000000000000
         H           -2.089488708919     0.851928635962     1.856085212357     1.007825032070
         H           -1.014214692511    -0.222267842446     2.731072125714     1.007825032070
         H           -2.576964984056    -0.801476446115     2.182885351612     1.007825032070
         C            0.720224271344    -0.189598707880    -1.117850413839    12.000000000000
         H           -0.017355460102    -0.146492515449    -1.918148485694     1.007825032070
         H            1.059171122593    -1.221946655185    -1.042141848205     1.007825032070
         O            1.799279716653     0.665908510747    -1.393616844024    15.994914619560
         H            2.207603725745     0.410835911913    -2.208556657027     1.007825032070
         C            0.090756150539     0.247922348668     0.192839203863    12.000000000000
         H           -0.215406494675     1.286068077887     0.096331312905     1.007825032070
         H            0.853551139348     0.218174841994     0.966179213513     1.007825032070

  Nuclear repulsion =  185.761720128420365

  ==> Basis Set <==

  Basis Set: 6-31G(D)
    Blend: 6-31G(D)
    Number of shells: 50
    Number of basis function: 95
    Number of Cartesian functions: 95
    Spherical Harmonics?: false
    Max angular momentum: 2

  ==> DFJKGrad: Density-Fitted SCF Gradients <==

    Gradient:                    1
    J tasked:                  Yes
    K tasked:                  Yes
    wK tasked:                  No
    OpenMP threads:             16
    Integrals threads:          16
    Memory (MB):             71525
    Schwarz Cutoff:          0E+00
    Fitting Condition:       1E-12

   => Auxiliary Basis Set <=

  Basis Set: (6-31G(D) AUX)
    Blend: CC-PVDZ-JKFIT
    Number of shells: 210
    Number of basis function: 655
    Number of Cartesian functions: 655
    Spherical Harmonics?: false
    Max angular momentum: 3


  -Total Gradient:
     Atom            X                  Y                   Z
    ------   -----------------  -----------------  -----------------
       1        0.000000282398     0.000003479126     0.000003849792
       2        0.000000256251    -0.000000400342     0.000000489835
       3       -0.000000519617     0.000000398381    -0.000000164614
       4        0.000003136722    -0.000000996471    -0.000005042432
       5        0.000000092031     0.000000165847    -0.000000362947
       6        0.000000369815    -0.000000089178    -0.000000143268
       7        0.000001125405    -0.000000023776    -0.000001393173
       8        0.000010501664     0.000013485576     0.000003678480
       9       -0.000004600778    -0.000002865262     0.000000803240
      10       -0.000003788183    -0.000003691272     0.000001464652
      11       -0.000005309060    -0.000006596247    -0.000001578473
      12        0.000004261802     0.000003837024    -0.000000544773
      13       -0.000007719962    -0.000007555658     0.000000250243
      14        0.000000341201     0.000001034791    -0.000001145954
      15        0.000001570309    -0.000000182537    -0.000000160606


*** tstop() called on wr86 at Thu Dec  6 15:26:33 2018
Module time:
	user time   =      15.03 seconds =       0.25 minutes
	system time =       0.61 seconds =       0.01 minutes
	total time  =          1 seconds =       0.02 minutes
Total time:
	user time   =      61.55 seconds =       1.03 minutes
	system time =       2.36 seconds =       0.04 minutes
	total time  =          5 seconds =       0.08 minutes

			-----------------------------------------
			 OPTKING 2.0: for geometry optimizations 
			  - R.A. King,  Bethel University        
			-----------------------------------------

	Previous internal coordinate definitions found.
	---Fragment 1 Geometry and Gradient---
	 C          -2.0851735805       -1.1656590963        1.1314204530
	 H          -1.4914098465       -3.1279067095        1.2910145814
	 H          -3.5092652190       -1.1120614901       -0.3509869114
	 C          -3.2748778812       -0.3252622199        3.6251829648
	 H          -3.9485614176        1.6099118067        3.5074927307
	 H          -1.9165880088       -0.4200253504        5.1609783668
	 H          -4.8697580739       -1.5145709851        4.1250554940
	 C           1.3610266271       -0.3582896330       -2.1124311397
	 H          -0.0327970665       -0.2768307347       -3.6247753202
	 H           2.0015433496       -2.3091445273       -1.9693626847
	 O           3.4001459009        1.2583847149       -2.6335541694
	 H           4.1717664516        0.7763673591       -4.1735672307
	 C           0.1715042694        0.4685053412        0.3644132830
	 H          -0.4070592822        2.4303164555        0.1820397994
	 H           1.6129778938        0.4122907005        1.8258141088
	             0.0000002824        0.0000034791        0.0000038498
	             0.0000002563       -0.0000004003        0.0000004898
	            -0.0000005196        0.0000003984       -0.0000001646
	             0.0000031367       -0.0000009965       -0.0000050424
	             0.0000000920        0.0000001658       -0.0000003629
	             0.0000003698       -0.0000000892       -0.0000001433
	             0.0000011254       -0.0000000238       -0.0000013932
	             0.0000105017        0.0000134856        0.0000036785
	            -0.0000046008       -0.0000028653        0.0000008032
	            -0.0000037882       -0.0000036913        0.0000014647
	            -0.0000053091       -0.0000065962       -0.0000015785
	             0.0000042618        0.0000038370       -0.0000005448
	            -0.0000077200       -0.0000075557        0.0000002502
	             0.0000003412        0.0000010348       -0.0000011460
	             0.0000015703       -0.0000001825       -0.0000001606

	---Fragment 1 Intrafragment Coordinates---
	 - Coordinate -           - BOHR/RAD -       - ANG/DEG -
	 R(1,2)           =         2.056317	       1.088156
	 R(1,3)           =         2.056317	       1.088156
	 R(1,4)           =         2.887995	       1.528261
	 R(1,13)          =         2.889877	       1.529257
	 R(4,5)           =         2.052462	       1.086116
	 R(4,6)           =         2.052462	       1.086116
	 R(4,7)           =         2.051334	       1.085519
	 R(8,9)           =         2.058292	       1.089201
	 R(8,10)          =         2.058292	       1.089201
	 R(8,11)          =         2.653905	       1.404386
	 R(8,13)          =         2.869375	       1.518408
	 R(11,12)         =         1.788681	       0.946529
	 R(13,14)         =         2.053460	       1.086644
	 R(13,15)         =         2.053460	       1.086644
	 B(1,4,5)         =         1.939138	     111.104416
	 B(1,4,6)         =         1.939138	     111.104418
	 B(1,4,7)         =         1.941197	     111.222371
	 B(1,13,8)        =         1.971306	     112.947541
	 B(1,13,14)       =         1.921753	     110.108335
	 B(1,13,15)       =         1.921753	     110.108340
	 B(2,1,3)         =         1.855420	     106.307716
	 B(2,1,4)         =         1.906695	     109.245585
	 B(2,1,13)        =         1.912111	     109.555887
	 B(3,1,4)         =         1.906695	     109.245591
	 B(3,1,13)        =         1.912111	     109.555888
	 B(4,1,13)        =         1.967430	     112.725407
	 B(5,4,6)         =         1.879326	     107.677436
	 B(5,4,7)         =         1.881176	     107.783434
	 B(6,4,7)         =         1.881176	     107.783435
	 B(8,11,12)       =         1.913845	     109.655262
	 B(8,13,14)       =         1.891699	     108.386357
	 B(8,13,15)       =         1.891699	     108.386360
	 B(9,8,10)        =         1.874767	     107.416226
	 B(9,8,11)        =         1.930417	     110.604751
	 B(9,8,13)        =         1.919958	     110.005497
	 B(10,8,11)       =         1.930417	     110.604756
	 B(10,8,13)       =         1.919958	     110.005504
	 B(11,8,13)       =         1.888614	     108.209622
	 B(14,13,15)      =         1.862037	     106.686873
	 D(1,13,8,9)      =         1.030916	      59.067114
	 D(1,13,8,10)     =        -1.030916	     -59.067144
	 D(1,13,8,11)     =         3.141593	     180.000000
	 D(2,1,4,5)       =        -3.107111	    -178.024362
	 D(2,1,4,6)       =         1.084155	      62.117525
	 D(2,1,4,7)       =        -1.011478	     -57.953420
	 D(2,1,13,8)      =         1.014539	      58.128777
	 D(2,1,13,14)     =         3.131922	     179.445934
	 D(2,1,13,15)     =        -1.102845	     -63.188388
	 D(3,1,4,5)       =        -1.084150	     -62.117231
	 D(3,1,4,6)       =         3.107116	     178.024657
	 D(3,1,4,7)       =         1.011483	      57.953712
	 D(3,1,13,8)      =        -1.014537	     -58.128678
	 D(3,1,13,14)     =         1.102847	      63.188479
	 D(3,1,13,15)     =        -3.131921	    -179.445843
	 D(4,1,13,8)      =         3.141593	     180.000000
	 D(4,1,13,14)     =        -1.024208	     -58.682797
	 D(4,1,13,15)     =         1.024209	      58.682880
	 D(5,4,1,13)      =         1.045962	      59.929206
	 D(6,4,1,13)      =        -1.045957	     -59.928907
	 D(7,4,1,13)      =         3.141593	     180.000000
	 D(9,8,11,12)     =        -1.037420	     -59.439802
	 D(9,8,13,14)     =        -1.103393	     -63.219738
	 D(9,8,13,15)     =        -3.117961	    -178.646025
	 D(10,8,11,12)    =         1.037423	      59.439957
	 D(10,8,13,14)    =         3.117961	     178.646004
	 D(10,8,13,15)    =         1.103392	      63.219717
	 D(11,8,13,14)    =         1.007284	      57.713128
	 D(11,8,13,15)    =        -1.007285	     -57.713159
	 D(12,11,8,13)    =         3.141593	     180.000000

	Current energy   :      -232.1450001662

	Energy change for the previous step:
		Projected    :        -0.0000000338
		Actual       :        -0.0000000097

	Performing BFGS update.
	Previous computed or guess Hessian on step 1.
	Steps to be used in Hessian update: 1
	Taking RFO optimization step.
	Going to follow RFO solution 1.
	Using RFO vector 1.
	Norm of target step-size    0.00012
	Projected energy change by RFO approximation:        -0.0000000021

	Back-transformation to cartesian coordinates...
	Successfully converged to displaced geometry.
	First geometry is closer to target in internal coordinates, so am using that one.
	First geometry has RMS(Delta(q)) = 6.12e-07

	--- Internal Coordinate Step in ANG or DEG, aJ/ANG or AJ/DEG ---
	 ---------------------------------------------------------------------------
	   Coordinate                Previous        Force       Change         New 
	   ----------                --------       ------       ------       ------
	    1 R(1,2)          =      1.088156    -0.000004    -0.000002     1.088155
	    2 R(1,3)          =      1.088156    -0.000004    -0.000002     1.088155
	    3 R(1,4)          =      1.528261     0.000068     0.000012     1.528273
	    4 R(1,13)         =      1.529257     0.000048     0.000008     1.529265
	    5 R(4,5)          =      1.086116    -0.000001    -0.000001     1.086115
	    6 R(4,6)          =      1.086116    -0.000001    -0.000001     1.086115
	    7 R(4,7)          =      1.085519     0.000010     0.000001     1.085520
	    8 R(8,9)          =      1.089201    -0.000020    -0.000005     1.089196
	    9 R(8,10)         =      1.089201    -0.000020    -0.000005     1.089196
	   10 R(8,11)         =      1.404386     0.000017     0.000007     1.404394
	   11 R(8,13)         =      1.518408     0.000033     0.000005     1.518413
	   12 R(11,12)        =      0.946529    -0.000010    -0.000002     0.946527
	   13 R(13,14)        =      1.086644    -0.000008    -0.000003     1.086642
	   14 R(13,15)        =      1.086644    -0.000008    -0.000003     1.086642
	   15 B(1,4,5)        =    111.104416     0.000000    -0.000036   111.104380
	   16 B(1,4,6)        =    111.104418     0.000000    -0.000039   111.104378
	   17 B(1,4,7)        =    111.222371     0.000000     0.000488   111.222859
	   18 B(1,13,8)       =    112.947541    -0.000000    -0.000600   112.946941
	   19 B(1,13,14)      =    110.108335    -0.000000    -0.000356   110.107978
	   20 B(1,13,15)      =    110.108340    -0.000000    -0.000368   110.107972
	   21 B(2,1,3)        =    106.307716     0.000000    -0.000057   106.307659
	   22 B(2,1,4)        =    109.245585    -0.000000    -0.000171   109.245414
	   23 B(2,1,13)       =    109.555887    -0.000000    -0.000099   109.555788
	   24 B(3,1,4)        =    109.245591    -0.000000    -0.000181   109.245410
	   25 B(3,1,13)       =    109.555888    -0.000000    -0.000102   109.555786
	   26 B(4,1,13)       =    112.725407     0.000000     0.000573   112.725980
	   27 B(5,4,6)        =    107.677436    -0.000000    -0.000035   107.677401
	   28 B(5,4,7)        =    107.783434    -0.000000    -0.000200   107.783234
	   29 B(6,4,7)        =    107.783435    -0.000000    -0.000202   107.783233
	   30 B(8,11,12)      =    109.655262    -0.000001    -0.002705   109.652558
	   31 B(8,13,14)      =    108.386357     0.000000     0.000572   108.386928
	   32 B(8,13,15)      =    108.386360     0.000000     0.000570   108.386929
	   33 B(9,8,10)       =    107.416226     0.000000     0.001453   107.417680
	   34 B(9,8,11)       =    110.604751    -0.000000    -0.001802   110.602949
	   35 B(9,8,13)       =    110.005497     0.000000     0.001486   110.006983
	   36 B(10,8,11)      =    110.604756    -0.000000    -0.001813   110.602943
	   37 B(10,8,13)      =    110.005504     0.000000     0.001478   110.006982
	   38 B(11,8,13)      =    108.209622    -0.000000    -0.000761   108.208861
	   39 B(14,13,15)     =    106.686873    -0.000000     0.000257   106.687130
	   40 D(1,13,8,9)     =     59.067114     0.000000     0.001832    59.068946
	   41 D(1,13,8,10)    =    -59.067144    -0.000000    -0.001750   -59.068894
	   42 D(1,13,8,11)    =    180.000000     0.000000     0.000000   180.000000
	   43 D(2,1,4,5)      =   -178.024362     0.000000    -0.000186  -178.024548
	   44 D(2,1,4,6)      =     62.117525     0.000000    -0.000091    62.117434
	   45 D(2,1,4,7)      =    -57.953420     0.000000    -0.000137   -57.953557
	   46 D(2,1,13,8)     =     58.128777    -0.000000    -0.000158    58.128619
	   47 D(2,1,13,14)    =    179.445934     0.000000    -0.000091   179.445843
	   48 D(2,1,13,15)    =    -63.188388    -0.000000    -0.000213   -63.188601
	   49 D(3,1,4,5)      =    -62.117231    -0.000000    -0.000451   -62.117682
	   50 D(3,1,4,6)      =    178.024657    -0.000000    -0.000356   178.024300
	   51 D(3,1,4,7)      =     57.953712    -0.000000    -0.000402    57.953310
	   52 D(3,1,13,8)     =    -58.128678     0.000000     0.000026   -58.128652
	   53 D(3,1,13,14)    =     63.188479     0.000000     0.000093    63.188572
	   54 D(3,1,13,15)    =   -179.445843    -0.000000    -0.000029  -179.445872
	   55 D(4,1,13,8)     =    180.000000     0.000000     0.000000   180.000000
	   56 D(4,1,13,14)    =    -58.682797     0.000000     0.000008   -58.682789
	   57 D(4,1,13,15)    =     58.682880    -0.000000    -0.000113    58.682767
	   58 D(5,4,1,13)     =     59.929206    -0.000000    -0.000324    59.928882
	   59 D(6,4,1,13)     =    -59.928907     0.000000    -0.000229   -59.929136
	   60 D(7,4,1,13)     =    180.000000    -0.000000     0.000000   180.000000
	   61 D(9,8,11,12)    =    -59.439802     0.000000     0.000196   -59.439607
	   62 D(9,8,13,14)    =    -63.219738     0.000000     0.002275   -63.217463
	   63 D(9,8,13,15)    =   -178.646025     0.000000     0.001372  -178.644653
	   64 D(10,8,11,12)   =     59.439957    -0.000000    -0.000299    59.439658
	   65 D(10,8,13,14)   =    178.646004    -0.000000    -0.001307   178.644697
	   66 D(10,8,13,15)   =     63.219717    -0.000000    -0.002210    63.217507
	   67 D(11,8,13,14)   =     57.713128     0.000000     0.000493    57.713621
	   68 D(11,8,13,15)   =    -57.713159    -0.000000    -0.000410   -57.713569
	   69 D(12,11,8,13)   =    180.000000    -0.000000     0.000000   180.000000
	 ---------------------------------------------------------------------------
	Successfully symmetrized geometry.

  ==> Convergence Check <==

  Measures of convergence in internal coordinates in au.
  Criteria marked as inactive (o), active & met (*), and active & unmet ( ).
  ---------------------------------------------------------------------------------------------
   Step     Total Energy     Delta E     MAX Force     RMS Force      MAX Disp      RMS Disp   
  ---------------------------------------------------------------------------------------------
    Convergence Criteria             o    1.50e-05 *    1.00e-05 *    6.00e-05 *    4.00e-05 *
  ---------------------------------------------------------------------------------------------
      2    -232.14500017   -9.69e-09 o    1.00e-05 *    2.18e-06 *    4.72e-05 *    1.47e-05 *  ~
  ---------------------------------------------------------------------------------------------


  **** Optimization is complete! (in 2 steps) ****

  ==> Optimization Summary <==

  Measures of convergence in internal coordinates in au.
  --------------------------------------------------------------------------------------------------------------- ~
   Step         Total Energy             Delta E       MAX Force       RMS Force        MAX Disp        RMS Disp  ~
  --------------------------------------------------------------------------------------------------------------- ~
      1    -232.145000156517   -232.145000156517      0.00005957      0.00000940      0.00014209      0.00004720  ~
      2    -232.145000166209     -0.000000009692      0.00001005      0.00000218      0.00004720      0.00001467  ~
  --------------------------------------------------------------------------------------------------------------- ~

	Writing optimization data to binary file.
	Final energy is   -232.1450001662087
	Final (previous) structure:
	Cartesian Geometry (in Angstrom)
	    C    -1.1034263348  -0.6168402267   0.5987219171
	    H    -0.7892200994  -1.6552169412   0.6831754924
	    H    -1.8570231728  -0.5884775951  -0.1857342740
	    C    -1.7329907356  -0.1721213536   1.9183642020
	    H    -2.0894887089   0.8519286360   1.8560852124
	    H    -1.0142146925  -0.2222678424   2.7310721257
	    H    -2.5769649841  -0.8014764461   2.1828853516
	    C     0.7202242713  -0.1895987079  -1.1178504138
	    H    -0.0173554601  -0.1464925154  -1.9181484857
	    H     1.0591711226  -1.2219466552  -1.0421418482
	    O     1.7992797167   0.6659085107  -1.3936168440
	    H     2.2076037257   0.4108359119  -2.2085566570
	    C     0.0907561505   0.2479223487   0.1928392039
	    H    -0.2154064947   1.2860680779   0.0963313129
	    H     0.8535511393   0.2181748420   0.9661792135
	Saving final (previous) structure.
	Removing binary optimization data file.
			--------------------------
			 OPTKING Finished Execution 
			--------------------------

    Final optimized geometry and variables:
    Molecular point group: c1
    Full point group: C1

    Geometry (in Angstrom), charge = 0, multiplicity = 1:

    C           -1.103426334780    -0.616840226742     0.598721917086
    H           -0.789220099410    -1.655216941243     0.683175492438
    H           -1.857023172790    -0.588477595108    -0.185734274002
    C           -1.732990735624    -0.172121353565     1.918364201957
    H           -2.089488708919     0.851928635962     1.856085212357
    H           -1.014214692511    -0.222267842446     2.731072125714
    H           -2.576964984056    -0.801476446115     2.182885351612
    C            0.720224271344    -0.189598707880    -1.117850413839
    H           -0.017355460102    -0.146492515449    -1.918148485694
    H            1.059171122593    -1.221946655185    -1.042141848205
    O            1.799279716653     0.665908510747    -1.393616844024
    H            2.207603725745     0.410835911913    -2.208556657027
    C            0.090756150539     0.247922348668     0.192839203863
    H           -0.215406494675     1.286068077887     0.096331312905
    H            0.853551139348     0.218174841994     0.966179213513

	Removing binary optimization data file.
	Cleaning optimization helper files.

    Psi4 stopped on: Thursday, 06 December 2018 03:26PM
    Psi4 wall time for execution: 0:00:04.95

*** Psi4 exiting successfully. Buy a developer a beer!
