
    -----------------------------------------------------------------------
          Psi4: An Open-Source Ab Initio Electronic Structure Package
                               Psi4 1.2.1 release

                         Git: Rev {HEAD} 406f4de 


    R. M. Parrish, L. A. Burns, D. G. A. Smith, A. C. Simmonett,
    A. E. DePrince III, E. G. Hohenstein, U. Bozkaya, A. Yu. Sokolov,
    R. Di Remigio, R. M. Richard, J. F. Gonthier, A. M. James,
    H. R. McAlexander, A. Kumar, M. Saitow, X. Wang, B. P. Pritchard,
    P. Verma, H. F. Schaefer III, K. Patkowski, R. A. King, E. F. Valeev,
    F. A. Evangelista, J. M. Turney, T. D. Crawford, and C. D. Sherrill,
    J. Chem. Theory Comput. 13(7) pp 3185--3197 (2017).
    (doi: 10.1021/acs.jctc.7b00174)


                         Additional Contributions by
    P. Kraus, H. Kruse, M. H. Lechner, M. C. Schieber, and R. A. Shaw

    -----------------------------------------------------------------------


    Psi4 started on: Thursday, 06 December 2018 04:21PM

    Process ID: 228335
    Host:       wr86
    PSIDATADIR: /usr/local/hpc1/software_molmod/psi4/psi4conda/share/psi4
    Memory:     500.0 MiB
    Threads:    16
    
  ==> Input File <==

--------------------------------------------------------------------------
memory 100 Gb

molecule conf_01 {
0 1
  C     0.340728127337    -0.334748963608    -0.027658188083
  H     0.038130560824    -0.420306976059    -1.072100546837
  H     1.125493237095     0.417950492977     0.017789111372
  C     0.856649693196    -1.677374329773     0.466405915250
  H     1.179851246784    -1.564659766290     1.498310854852
  H     0.016092866055    -2.365307444621     0.479472454968
  C     1.988695089985    -2.273483635716    -0.376547494005
  H     2.183005626125    -3.282762459918    -0.023138835283
  H     1.658078230499    -2.374966995123    -1.408593662738
  C     3.297784862121    -1.481199816286    -0.338821860907
  H     4.077989592940    -1.998583526007    -0.888917288367
  H     3.190317604679    -0.495040715452    -0.778830420100
  H     3.644669301237    -1.350845317650     0.682650554742
  O    -0.742787300042     0.037523627406     0.775745827635
  H    -1.063190131125     0.889436894473     0.500658770949
  C    -3.243749703666     2.422940826618    -0.467188894733
  H    -3.651262650008     3.319729146715    -0.923300986054
  H    -3.866965587738     2.134540649871     0.373343228555
  H    -3.255598276943     1.625982993964    -1.196028968521
  O    -1.903977963404     2.608131446872    -0.081219027568
  H    -1.849937873220     3.291205725726     0.572465873991
}
set globals {
  reference rhf
  basis 6-31G(d)
}
frequency('scf', dertype=1)
--------------------------------------------------------------------------

  Memory set to  93.132 GiB by Python driver.
gradient() will perform analytic gradient computation.

*** tstart() called on wr86
*** at Thu Dec  6 16:21:50 2018

   => Loading Basis Set <=

    Name: 6-31G(D)
    Role: ORBITAL
    Keyword: BASIS
    atoms 1, 4, 7, 10, 16                     entry C          line   111 file /usr/local/hpc1/software_molmod/psi4/psi4conda/share/psi4/basis/6-31g_d_.gbs 
    atoms 2-3, 5-6, 8-9, 11-13, 15, 17-19, 21 entry H          line    44 file /usr/local/hpc1/software_molmod/psi4/psi4conda/share/psi4/basis/6-31g_d_.gbs 
    atoms 14, 20                              entry O          line   145 file /usr/local/hpc1/software_molmod/psi4/psi4conda/share/psi4/basis/6-31g_d_.gbs 


         ---------------------------------------------------------
                                   SCF
            by Justin Turney, Rob Parrish, Andy Simmonett
                             and Daniel Smith
                              RHF Reference
                       16 Threads,  95367 MiB Core
         ---------------------------------------------------------

  ==> Geometry <==

    Molecular point group: c1
    Full point group: C1

    Geometry (in Angstrom), charge = 0, multiplicity = 1:

       Center              X                  Y                   Z               Mass       
    ------------   -----------------  -----------------  -----------------  -----------------
         C            0.340728127337    -0.334748963608    -0.027658188083    12.000000000000
         H            0.038130560824    -0.420306976059    -1.072100546837     1.007825032070
         H            1.125493237095     0.417950492977     0.017789111372     1.007825032070
         C            0.856649693196    -1.677374329773     0.466405915250    12.000000000000
         H            1.179851246784    -1.564659766290     1.498310854852     1.007825032070
         H            0.016092866055    -2.365307444621     0.479472454968     1.007825032070
         C            1.988695089985    -2.273483635716    -0.376547494005    12.000000000000
         H            2.183005626125    -3.282762459918    -0.023138835283     1.007825032070
         H            1.658078230499    -2.374966995123    -1.408593662738     1.007825032070
         C            3.297784862121    -1.481199816286    -0.338821860907    12.000000000000
         H            4.077989592940    -1.998583526007    -0.888917288367     1.007825032070
         H            3.190317604679    -0.495040715452    -0.778830420100     1.007825032070
         H            3.644669301237    -1.350845317650     0.682650554742     1.007825032070
         O           -0.742787300042     0.037523627406     0.775745827635    15.994914619560
         H           -1.063190131125     0.889436894473     0.500658770949     1.007825032070
         C           -3.243749703666     2.422940826618    -0.467188894733    12.000000000000
         H           -3.651262650008     3.319729146715    -0.923300986054     1.007825032070
         H           -3.866965587738     2.134540649871     0.373343228555     1.007825032070
         H           -3.255598276943     1.625982993964    -1.196028968521     1.007825032070
         O           -1.903977963404     2.608131446872    -0.081219027568    15.994914619560
         H           -1.849937873220     3.291205725726     0.572465873991     1.007825032070

  Running in c1 symmetry.

  Rotational constants: A =      0.21576  B =      0.02072  C =      0.01996 [cm^-1]
  Rotational constants: A =   6468.31545  B =    621.16458  C =    598.31272 [MHz]
  Nuclear repulsion =  310.641242302469891

  Charge       = 0
  Multiplicity = 1
  Electrons    = 60
  Nalpha       = 30
  Nbeta        = 30

  ==> Algorithm <==

  SCF Algorithm Type is DF.
  DIIS enabled.
  MOM disabled.
  Fractional occupation disabled.
  Guess Type is SAD.
  Energy threshold   = 1.00e-08
  Density threshold  = 1.00e-08
  Integral threshold = 0.00e+00

  ==> Primary Basis <==

  Basis Set: 6-31G(D)
    Blend: 6-31G(D)
    Number of shells: 70
    Number of basis function: 133
    Number of Cartesian functions: 133
    Spherical Harmonics?: false
    Max angular momentum: 2

   => Loading Basis Set <=

    Name: (6-31G(D) AUX)
    Role: JKFIT
    Keyword: DF_BASIS_SCF
    atoms 1, 4, 7, 10, 16                     entry C          line   121 file /usr/local/hpc1/software_molmod/psi4/psi4conda/share/psi4/basis/cc-pvdz-jkfit.gbs 
    atoms 2-3, 5-6, 8-9, 11-13, 15, 17-19, 21 entry H          line    51 file /usr/local/hpc1/software_molmod/psi4/psi4conda/share/psi4/basis/cc-pvdz-jkfit.gbs 
    atoms 14, 20                              entry O          line   221 file /usr/local/hpc1/software_molmod/psi4/psi4conda/share/psi4/basis/cc-pvdz-jkfit.gbs 

  ==> Pre-Iterations <==

   -------------------------------------------------------
    Irrep   Nso     Nmo     Nalpha   Nbeta   Ndocc  Nsocc
   -------------------------------------------------------
     A        133     133       0       0       0       0
   -------------------------------------------------------
    Total     133     133      30      30      30       0
   -------------------------------------------------------

  ==> Integral Setup <==

  ==> DiskDFJK: Density-Fitted J/K Matrices <==

    J tasked:                  Yes
    K tasked:                  Yes
    wK tasked:                  No
    OpenMP threads:             16
    Integrals threads:          16
    Memory (MB):             71525
    Algorithm:                Core
    Integral Cache:           NONE
    Schwarz Cutoff:          1E-12
    Fitting Condition:       1E-12

   => Auxiliary Basis Set <=

  Basis Set: (6-31G(D) AUX)
    Blend: CC-PVDZ-JKFIT
    Number of shells: 294
    Number of basis function: 917
    Number of Cartesian functions: 917
    Spherical Harmonics?: false
    Max angular momentum: 3

  Minimum eigenvalue in the overlap matrix is 4.1220703135E-03.
  Using Symmetric Orthogonalization.

  SCF Guess: Superposition of Atomic Densities via on-the-fly atomic UHF.

  ==> Iterations <==

                           Total Energy        Delta E     RMS |[F,P]|

   @DF-RHF iter   0:  -349.73678062150111   -3.49737e+02   1.00343e-01 
   @DF-RHF iter   1:  -347.00558761014724    2.73119e+00   9.57034e-03 
   @DF-RHF iter   2:  -347.16605494082910   -1.60467e-01   3.39530e-03 DIIS
   @DF-RHF iter   3:  -347.18328650924303   -1.72316e-02   1.56831e-03 DIIS
   @DF-RHF iter   4:  -347.18706438128640   -3.77787e-03   4.46045e-04 DIIS
   @DF-RHF iter   5:  -347.18732587731131   -2.61496e-04   9.01179e-05 DIIS
   @DF-RHF iter   6:  -347.18735097763818   -2.51003e-05   4.69525e-05 DIIS
   @DF-RHF iter   7:  -347.18735354953856   -2.57190e-06   8.06596e-06 DIIS
   @DF-RHF iter   8:  -347.18735381531565   -2.65777e-07   2.33950e-06 DIIS
   @DF-RHF iter   9:  -347.18735382967452   -1.43589e-08   8.49953e-07 DIIS
   @DF-RHF iter  10:  -347.18735383049835   -8.23832e-10   2.38364e-07 DIIS
   @DF-RHF iter  11:  -347.18735383056753   -6.91784e-11   7.47003e-08 DIIS
   @DF-RHF iter  12:  -347.18735383057356   -6.02540e-12   3.01527e-08 DIIS
   @DF-RHF iter  13:  -347.18735383057424   -6.82121e-13   5.98761e-09 DIIS

  ==> Post-Iterations <==

    Orbital Energies [Eh]
    ---------------------

    Doubly Occupied:                                                      

       1A    -20.581691     2A    -20.522626     3A    -11.280903  
       4A    -11.249476     5A    -11.209864     6A    -11.203681  
       7A    -11.199279     8A     -1.383186     9A     -1.333581  
      10A     -1.058601    11A     -0.958313    12A     -0.943814  
      13A     -0.856208    14A     -0.772542    15A     -0.715901  
      16A     -0.677825    17A     -0.638071    18A     -0.634113  
      19A     -0.613714    20A     -0.605140    21A     -0.572349  
      22A     -0.541842    23A     -0.525570    24A     -0.518705  
      25A     -0.492368    26A     -0.468739    27A     -0.462787  
      28A     -0.461737    29A     -0.438976    30A     -0.410725  

    Virtual:                                                              

      31A      0.205095    32A      0.238546    33A      0.268385  
      34A      0.279056    35A      0.287923    36A      0.302350  
      37A      0.315100    38A      0.319622    39A      0.321710  
      40A      0.335784    41A      0.345365    42A      0.352610  
      43A      0.364969    44A      0.384915    45A      0.394313  
      46A      0.429023    47A      0.441967    48A      0.473738  
      49A      0.484169    50A      0.728298    51A      0.733032  
      52A      0.751103    53A      0.755878    54A      0.769367  
      55A      0.775993    56A      0.780059    57A      0.806816  
      58A      0.860671    59A      0.903813    60A      0.941569  
      61A      0.976842    62A      1.001401    63A      1.025525  
      64A      1.047307    65A      1.116923    66A      1.125448  
      67A      1.140083    68A      1.151990    69A      1.160962  
      70A      1.164887    71A      1.172028    72A      1.180030  
      73A      1.190006    74A      1.206032    75A      1.212641  
      76A      1.223363    77A      1.244344    78A      1.254173  
      79A      1.262697    80A      1.265480    81A      1.283391  
      82A      1.331579    83A      1.371899    84A      1.395024  
      85A      1.451062    86A      1.520054    87A      1.648206  
      88A      1.699339    89A      1.714752    90A      1.723425  
      91A      1.747329    92A      1.828017    93A      1.853159  
      94A      1.859661    95A      1.895090    96A      1.974940  
      97A      2.022581    98A      2.060306    99A      2.120019  
     100A      2.146901   101A      2.215730   102A      2.275981  
     103A      2.279248   104A      2.326960   105A      2.352137  
     106A      2.371610   107A      2.421082   108A      2.433592  
     109A      2.468993   110A      2.487718   111A      2.587420  
     112A      2.645342   113A      2.654712   114A      2.682609  
     115A      2.703418   116A      2.728792   117A      2.750002  
     118A      2.784823   119A      2.801738   120A      2.841199  
     121A      2.914237   122A      2.984676   123A      2.998237  
     124A      3.126655   125A      3.150447   126A      3.308353  
     127A      4.195603   128A      4.398505   129A      4.579618  
     130A      4.635672   131A      4.708745   132A      4.852698  
     133A      4.959989  

    Final Occupation by Irrep:
              A 
    DOCC [    30 ]

  Energy converged.

  @DF-RHF Final Energy:  -347.18735383057424

   => Energetics <=

    Nuclear Repulsion Energy =            310.6412423024698910
    One-Electron Energy =               -1088.9925388259789543
    Two-Electron Energy =                 431.1639426929348247
    Total Energy =                       -347.1873538305742386



Properties will be evaluated at   0.000000,   0.000000,   0.000000 [a0]

Properties computed using the SCF density matrix

  Nuclear Dipole Moment: [e a0]
     X:     3.1997      Y:    -2.0250      Z:    -2.0274

  Electronic Dipole Moment: [e a0]
     X:    -3.7495      Y:     2.9856      Z:     1.7729

  Dipole Moment: [e a0]
     X:    -0.5498      Y:     0.9606      Z:    -0.2546     Total:     1.1357

  Dipole Moment: [D]
     X:    -1.3975      Y:     2.4417      Z:    -0.6470     Total:     2.8868


*** tstop() called on wr86 at Thu Dec  6 16:21:53 2018
Module time:
	user time   =      24.18 seconds =       0.40 minutes
	system time =       1.14 seconds =       0.02 minutes
	total time  =          3 seconds =       0.05 minutes
Total time:
	user time   =      24.18 seconds =       0.40 minutes
	system time =       1.14 seconds =       0.02 minutes
	total time  =          3 seconds =       0.05 minutes

*** tstart() called on wr86
*** at Thu Dec  6 16:21:53 2018


         ------------------------------------------------------------
                                   SCF GRAD                          
                          Rob Parrish, Justin Turney,                
                       Andy Simmonett, and Alex Sokolov              
         ------------------------------------------------------------

  ==> Geometry <==

    Molecular point group: c1
    Full point group: C1

    Geometry (in Angstrom), charge = 0, multiplicity = 1:

       Center              X                  Y                   Z               Mass       
    ------------   -----------------  -----------------  -----------------  -----------------
         C            0.340728127337    -0.334748963608    -0.027658188083    12.000000000000
         H            0.038130560824    -0.420306976059    -1.072100546837     1.007825032070
         H            1.125493237095     0.417950492977     0.017789111372     1.007825032070
         C            0.856649693196    -1.677374329773     0.466405915250    12.000000000000
         H            1.179851246784    -1.564659766290     1.498310854852     1.007825032070
         H            0.016092866055    -2.365307444621     0.479472454968     1.007825032070
         C            1.988695089985    -2.273483635716    -0.376547494005    12.000000000000
         H            2.183005626125    -3.282762459918    -0.023138835283     1.007825032070
         H            1.658078230499    -2.374966995123    -1.408593662738     1.007825032070
         C            3.297784862121    -1.481199816286    -0.338821860907    12.000000000000
         H            4.077989592940    -1.998583526007    -0.888917288367     1.007825032070
         H            3.190317604679    -0.495040715452    -0.778830420100     1.007825032070
         H            3.644669301237    -1.350845317650     0.682650554742     1.007825032070
         O           -0.742787300042     0.037523627406     0.775745827635    15.994914619560
         H           -1.063190131125     0.889436894473     0.500658770949     1.007825032070
         C           -3.243749703666     2.422940826618    -0.467188894733    12.000000000000
         H           -3.651262650008     3.319729146715    -0.923300986054     1.007825032070
         H           -3.866965587738     2.134540649871     0.373343228555     1.007825032070
         H           -3.255598276943     1.625982993964    -1.196028968521     1.007825032070
         O           -1.903977963404     2.608131446872    -0.081219027568    15.994914619560
         H           -1.849937873220     3.291205725726     0.572465873991     1.007825032070

  Nuclear repulsion =  310.641242302469891

  ==> Basis Set <==

  Basis Set: 6-31G(D)
    Blend: 6-31G(D)
    Number of shells: 70
    Number of basis function: 133
    Number of Cartesian functions: 133
    Spherical Harmonics?: false
    Max angular momentum: 2

  ==> DFJKGrad: Density-Fitted SCF Gradients <==

    Gradient:                    1
    J tasked:                  Yes
    K tasked:                  Yes
    wK tasked:                  No
    OpenMP threads:             16
    Integrals threads:          16
    Memory (MB):             71525
    Schwarz Cutoff:          0E+00
    Fitting Condition:       1E-12

   => Auxiliary Basis Set <=

  Basis Set: (6-31G(D) AUX)
    Blend: CC-PVDZ-JKFIT
    Number of shells: 294
    Number of basis function: 917
    Number of Cartesian functions: 917
    Spherical Harmonics?: false
    Max angular momentum: 3


  -Total Gradient:
     Atom            X                  Y                   Z
    ------   -----------------  -----------------  -----------------
       1        0.000008990596    -0.000002120362    -0.000002709072
       2        0.000001563047    -0.000002556554     0.000001713178
       3       -0.000001042288    -0.000000580869    -0.000000677152
       4       -0.000001634592    -0.000001520123     0.000001285109
       5       -0.000000332266     0.000000741480    -0.000001140237
       6        0.000001356634    -0.000000049221     0.000000714867
       7        0.000000000408    -0.000002001303     0.000001244814
       8       -0.000000471098    -0.000000028844    -0.000000840894
       9        0.000001827609     0.000000414832     0.000000516547
      10        0.000000645677     0.000001348950    -0.000002276761
      11       -0.000000490206    -0.000000536807    -0.000000250544
      12        0.000001798475    -0.000000438247     0.000000404069
      13       -0.000001984821    -0.000000746654    -0.000000315208
      14       -0.000002942732     0.000006457255     0.000004265291
      15       -0.000005898677    -0.000003329293    -0.000009474790
      16       -0.000009540112     0.000004896226     0.000006330791
      17        0.000001978427    -0.000000283058     0.000000446192
      18       -0.000001190625     0.000000517397    -0.000001680011
      19        0.000006450118    -0.000000633766     0.000002284107
      20        0.000011489803    -0.000003254595     0.000002967373
      21       -0.000010573375     0.000003703562    -0.000002807671


*** tstop() called on wr86 at Thu Dec  6 16:21:55 2018
Module time:
	user time   =      22.23 seconds =       0.37 minutes
	system time =       0.70 seconds =       0.01 minutes
	total time  =          2 seconds =       0.03 minutes
Total time:
	user time   =      46.43 seconds =       0.77 minutes
	system time =       1.84 seconds =       0.03 minutes
	total time  =          5 seconds =       0.08 minutes

  Based on options and gradient (rms=7.50E-06), recommend projecting translations and projecting rotations.
hessian() will perform frequency computation by finite difference of analytic gradients.

-------------------------------------------------------------

  Using finite-differences of gradients to determine vibrational frequencies and 
  normal modes.  Resulting frequencies are only valid at stationary points.
	Generating geometries for use with 3-point formula.
	Displacement size will be 5.00e-03.
	Number of atoms is 21.
	Number of irreps is 1.
	Number of SALCS is 57.
	Translations projected? 1. Rotations projected? 1.
	Index of salcs per irrep:
	 1 :  0  1  2  3  4  5  6  7  8  9  10  11  12  13  14  15  16  17  18  19  20  21  22  23  24  25  26  27  28  29  30  31  32  33  34  35  36  37  38  39  40  41  42  43  44  45  46  47  48  49  50  51  52  53  54  55  56 
	Number of SALC's per irrep:
		 Irrep 1: 57
	Number of geometries (including reference) is 115.
	Number of displacements per irrep:
	  Irrep 1: 114

  //>>>>>>>>>>>>>>>>>>>>>>>>>>>>>>>>>>>//
  //   Loading displacement 1 of 115   //
  //<<<<<<<<<<<<<<<<<<<<<<<<<<<<<<<<<<<//
gradient() will perform analytic gradient computation.

*** tstart() called on wr86
*** at Thu Dec  6 16:21:55 2018

   => Loading Basis Set <=

    Name: 6-31G(D)
    Role: ORBITAL
    Keyword: BASIS
    atoms 1, 4, 7, 10, 16                     entry C          line   111 file /usr/local/hpc1/software_molmod/psi4/psi4conda/share/psi4/basis/6-31g_d_.gbs 
    atoms 2-3, 5-6, 8-9, 11-13, 15, 17-19, 21 entry H          line    44 file /usr/local/hpc1/software_molmod/psi4/psi4conda/share/psi4/basis/6-31g_d_.gbs 
    atoms 14, 20                              entry O          line   145 file /usr/local/hpc1/software_molmod/psi4/psi4conda/share/psi4/basis/6-31g_d_.gbs 


         ---------------------------------------------------------
                                   SCF
            by Justin Turney, Rob Parrish, Andy Simmonett
                             and Daniel Smith
                              RHF Reference
                       16 Threads,  95367 MiB Core
         ---------------------------------------------------------

  ==> Geometry <==

    Molecular point group: c1
    Full point group: C1

    Geometry (in Angstrom), charge = 0, multiplicity = 1:

       Center              X                  Y                   Z               Mass       
    ------------   -----------------  -----------------  -----------------  -----------------
         C            0.340009490395    -0.334747594024    -0.027658117298    12.000000000000
         H            0.038225884739    -0.420305149365    -1.072101138223     1.007825032070
         H            1.125583395486     0.417954846123     0.017791730384     1.007825032070
         C            0.856747224517    -1.677371725369     0.466404784919    12.000000000000
         H            1.179946537986    -1.564657519169     1.498310465171     1.007825032070
         H            0.016193052352    -2.365308132547     0.479468780400     1.007825032070
         C            1.988796413194    -2.273475305253    -0.376547581299    12.000000000000
         H            2.183110261023    -3.282753926326    -0.023140163302     1.007825032070
         H            1.658181750356    -2.374958336020    -1.408594486046     1.007825032070
         C            3.297883035501    -1.481186449234    -0.338818422705    12.000000000000
         H            4.078090740532    -1.998566260879    -0.888913298091     1.007825032070
         H            3.190412707539    -0.495027077926    -0.778825625764     1.007825032070
         H            3.644765184047    -1.350832199364     0.682654802551     1.007825032070
         O           -0.742696983986     0.037519521744     0.775744589706    15.994914619560
         H           -1.063102650936     0.889431972262     0.500658307287     1.007825032070
         C           -3.243666503103     2.422928931631    -0.467190764402    12.000000000000
         H           -3.651182143976     3.319716379479    -0.923302163275     1.007825032070
         H           -3.866882731875     2.134525013238     0.373339819488     1.007825032070
         H           -3.255510701892     1.625972193785    -1.196032106435     1.007825032070
         O           -1.903896157477     2.608124162760    -0.081218268526    15.994914619560
         H           -1.849859867291     3.291197628685     0.572467796657     1.007825032070

  Running in c1 symmetry.

  Rotational constants: A =      0.21576  B =      0.02072  C =      0.01996 [cm^-1]
  Rotational constants: A =   6468.28174  B =    621.16980  C =    598.31756 [MHz]
  Nuclear repulsion =  310.644578121726624

  Charge       = 0
  Multiplicity = 1
  Electrons    = 60
  Nalpha       = 30
  Nbeta        = 30

  ==> Algorithm <==

  SCF Algorithm Type is DF.
  DIIS enabled.
  MOM disabled.
  Fractional occupation disabled.
  Guess Type is SAD.
  Energy threshold   = 1.00e-08
  Density threshold  = 1.00e-08
  Integral threshold = 0.00e+00

  ==> Primary Basis <==

  Basis Set: 6-31G(D)
    Blend: 6-31G(D)
    Number of shells: 70
    Number of basis function: 133
    Number of Cartesian functions: 133
    Spherical Harmonics?: false
    Max angular momentum: 2

   => Loading Basis Set <=

    Name: (6-31G(D) AUX)
    Role: JKFIT
    Keyword: DF_BASIS_SCF
    atoms 1, 4, 7, 10, 16                     entry C          line   121 file /usr/local/hpc1/software_molmod/psi4/psi4conda/share/psi4/basis/cc-pvdz-jkfit.gbs 
    atoms 2-3, 5-6, 8-9, 11-13, 15, 17-19, 21 entry H          line    51 file /usr/local/hpc1/software_molmod/psi4/psi4conda/share/psi4/basis/cc-pvdz-jkfit.gbs 
    atoms 14, 20                              entry O          line   221 file /usr/local/hpc1/software_molmod/psi4/psi4conda/share/psi4/basis/cc-pvdz-jkfit.gbs 

  ==> Pre-Iterations <==

   -------------------------------------------------------
    Irrep   Nso     Nmo     Nalpha   Nbeta   Ndocc  Nsocc
   -------------------------------------------------------
     A        133     133       0       0       0       0
   -------------------------------------------------------
    Total     133     133      30      30      30       0
   -------------------------------------------------------

  ==> Integral Setup <==

  ==> DiskDFJK: Density-Fitted J/K Matrices <==

    J tasked:                  Yes
    K tasked:                  Yes
    wK tasked:                  No
    OpenMP threads:             16
    Integrals threads:          16
    Memory (MB):             71525
    Algorithm:                Core
    Integral Cache:           NONE
    Schwarz Cutoff:          1E-12
    Fitting Condition:       1E-12

   => Auxiliary Basis Set <=

  Basis Set: (6-31G(D) AUX)
    Blend: CC-PVDZ-JKFIT
    Number of shells: 294
    Number of basis function: 917
    Number of Cartesian functions: 917
    Spherical Harmonics?: false
    Max angular momentum: 3

  Minimum eigenvalue in the overlap matrix is 4.1225081073E-03.
  Using Symmetric Orthogonalization.

  SCF Guess: Superposition of Atomic Densities via on-the-fly atomic UHF.

  ==> Iterations <==

                           Total Energy        Delta E     RMS |[F,P]|

   @DF-RHF iter   0:  -349.40697342756624   -3.49407e+02   1.45838e-01 
   @DF-RHF iter   1:  -346.98815758926366    2.41882e+00   1.23584e-02 
   @DF-RHF iter   2:  -347.16105038799810   -1.72893e-01   6.02763e-03 DIIS
   @DF-RHF iter   3:  -347.18286925464344   -2.18189e-02   1.49149e-03 DIIS
   @DF-RHF iter   4:  -347.18707214099084   -4.20289e-03   3.54638e-04 DIIS
   @DF-RHF iter   5:  -347.18731788831502   -2.45747e-04   1.34941e-04 DIIS
   @DF-RHF iter   6:  -347.18734923451217   -3.13462e-05   3.58045e-05 DIIS
   @DF-RHF iter   7:  -347.18735284428254   -3.60977e-06   8.57214e-06 DIIS
   @DF-RHF iter   8:  -347.18735309754504   -2.53262e-07   3.41372e-06 DIIS
   @DF-RHF iter   9:  -347.18735311329658   -1.57515e-08   9.71357e-07 DIIS
   @DF-RHF iter  10:  -347.18735311531827   -2.02169e-09   2.77559e-07 DIIS
   @DF-RHF iter  11:  -347.18735311543071   -1.12436e-10   7.64618e-08 DIIS
   @DF-RHF iter  12:  -347.18735311543890   -8.18545e-12   2.14170e-08 DIIS
   @DF-RHF iter  13:  -347.18735311544009   -1.19371e-12   4.54625e-09 DIIS

  ==> Post-Iterations <==

    Orbital Energies [Eh]
    ---------------------

    Doubly Occupied:                                                      

       1A    -20.581712     2A    -20.522703     3A    -11.280919  
       4A    -11.249494     5A    -11.209856     6A    -11.203662  
       7A    -11.199268     8A     -1.383208     9A     -1.333858  
      10A     -1.058552    11A     -0.958269    12A     -0.943831  
      13A     -0.856181    14A     -0.772518    15A     -0.715927  
      16A     -0.677975    17A     -0.638064    18A     -0.634131  
      19A     -0.613736    20A     -0.605157    21A     -0.572343  
      22A     -0.541916    23A     -0.525598    24A     -0.518725  
      25A     -0.492404    26A     -0.468754    27A     -0.462783  
      28A     -0.461737    29A     -0.438873    30A     -0.410670  

    Virtual:                                                              

      31A      0.205079    32A      0.238548    33A      0.268375  
      34A      0.279075    35A      0.287963    36A      0.302358  
      37A      0.315093    38A      0.319607    39A      0.321712  
      40A      0.335816    41A      0.345364    42A      0.352638  
      43A      0.364970    44A      0.384925    45A      0.394307  
      46A      0.429024    47A      0.441911    48A      0.473760  
      49A      0.484336    50A      0.728362    51A      0.733056  
      52A      0.751090    53A      0.755901    54A      0.769405  
      55A      0.776037    56A      0.780062    57A      0.806780  
      58A      0.860794    59A      0.903752    60A      0.941557  
      61A      0.976834    62A      1.001378    63A      1.025484  
      64A      1.047292    65A      1.116900    66A      1.125456  
      67A      1.140064    68A      1.151922    69A      1.160905  
      70A      1.164867    71A      1.172009    72A      1.179993  
      73A      1.189964    74A      1.206031    75A      1.212635  
      76A      1.223336    77A      1.244345    78A      1.254140  
      79A      1.262704    80A      1.265436    81A      1.283375  
      82A      1.331502    83A      1.371835    84A      1.394996  
      85A      1.451037    86A      1.520012    87A      1.648212  
      88A      1.699292    89A      1.714781    90A      1.723484  
      91A      1.747403    92A      1.828006    93A      1.853150  
      94A      1.859669    95A      1.894971    96A      1.975048  
      97A      2.022565    98A      2.060095    99A      2.120005  
     100A      2.146906   101A      2.215674   102A      2.275941  
     103A      2.279299   104A      2.326894   105A      2.352124  
     106A      2.371589   107A      2.421213   108A      2.433577  
     109A      2.469152   110A      2.487977   111A      2.587489  
     112A      2.645335   113A      2.654561   114A      2.682591  
     115A      2.703477   116A      2.728774   117A      2.750081  
     118A      2.784961   119A      2.801725   120A      2.841399  
     121A      2.914189   122A      2.984806   123A      2.998341  
     124A      3.126782   125A      3.150431   126A      3.308426  
     127A      4.195628   128A      4.398683   129A      4.579543  
     130A      4.635656   131A      4.708617   132A      4.852746  
     133A      4.959935  

    Final Occupation by Irrep:
              A 
    DOCC [    30 ]

  Energy converged.

  @DF-RHF Final Energy:  -347.18735311544009

   => Energetics <=

    Nuclear Repulsion Energy =            310.6445781217266244
    One-Electron Energy =               -1088.9982131741787725
    Two-Electron Energy =                 431.1662819370120019
    Total Energy =                       -347.1873531154400894



Properties will be evaluated at   0.000000,   0.000000,   0.000000 [a0]

Properties computed using the SCF density matrix

  Nuclear Dipole Moment: [e a0]
     X:     3.2009      Y:    -2.0250      Z:    -2.0274

  Electronic Dipole Moment: [e a0]
     X:    -3.7520      Y:     2.9859      Z:     1.7731

  Dipole Moment: [e a0]
     X:    -0.5511      Y:     0.9609      Z:    -0.2543     Total:     1.1365

  Dipole Moment: [D]
     X:    -1.4007      Y:     2.4423      Z:    -0.6464     Total:     2.8887


*** tstop() called on wr86 at Thu Dec  6 16:21:57 2018
Module time:
	user time   =      25.92 seconds =       0.43 minutes
	system time =       0.70 seconds =       0.01 minutes
	total time  =          2 seconds =       0.03 minutes
Total time:
	user time   =      72.55 seconds =       1.21 minutes
	system time =       2.56 seconds =       0.04 minutes
	total time  =          7 seconds =       0.12 minutes

*** tstart() called on wr86
*** at Thu Dec  6 16:21:57 2018


         ------------------------------------------------------------
                                   SCF GRAD                          
                          Rob Parrish, Justin Turney,                
                       Andy Simmonett, and Alex Sokolov              
         ------------------------------------------------------------

  ==> Geometry <==

    Molecular point group: c1
    Full point group: C1

    Geometry (in Angstrom), charge = 0, multiplicity = 1:

       Center              X                  Y                   Z               Mass       
    ------------   -----------------  -----------------  -----------------  -----------------
         C            0.340009490395    -0.334747594024    -0.027658117298    12.000000000000
         H            0.038225884739    -0.420305149365    -1.072101138223     1.007825032070
         H            1.125583395486     0.417954846123     0.017791730384     1.007825032070
         C            0.856747224517    -1.677371725369     0.466404784919    12.000000000000
         H            1.179946537986    -1.564657519169     1.498310465171     1.007825032070
         H            0.016193052352    -2.365308132547     0.479468780400     1.007825032070
         C            1.988796413194    -2.273475305253    -0.376547581299    12.000000000000
         H            2.183110261023    -3.282753926326    -0.023140163302     1.007825032070
         H            1.658181750356    -2.374958336020    -1.408594486046     1.007825032070
         C            3.297883035501    -1.481186449234    -0.338818422705    12.000000000000
         H            4.078090740532    -1.998566260879    -0.888913298091     1.007825032070
         H            3.190412707539    -0.495027077926    -0.778825625764     1.007825032070
         H            3.644765184047    -1.350832199364     0.682654802551     1.007825032070
         O           -0.742696983986     0.037519521744     0.775744589706    15.994914619560
         H           -1.063102650936     0.889431972262     0.500658307287     1.007825032070
         C           -3.243666503103     2.422928931631    -0.467190764402    12.000000000000
         H           -3.651182143976     3.319716379479    -0.923302163275     1.007825032070
         H           -3.866882731875     2.134525013238     0.373339819488     1.007825032070
         H           -3.255510701892     1.625972193785    -1.196032106435     1.007825032070
         O           -1.903896157477     2.608124162760    -0.081218268526    15.994914619560
         H           -1.849859867291     3.291197628685     0.572467796657     1.007825032070

  Nuclear repulsion =  310.644578121726624

  ==> Basis Set <==

  Basis Set: 6-31G(D)
    Blend: 6-31G(D)
    Number of shells: 70
    Number of basis function: 133
    Number of Cartesian functions: 133
    Spherical Harmonics?: false
    Max angular momentum: 2

  ==> DFJKGrad: Density-Fitted SCF Gradients <==

    Gradient:                    1
    J tasked:                  Yes
    K tasked:                  Yes
    wK tasked:                  No
    OpenMP threads:             16
    Integrals threads:          16
    Memory (MB):             71525
    Schwarz Cutoff:          0E+00
    Fitting Condition:       1E-12

   => Auxiliary Basis Set <=

  Basis Set: (6-31G(D) AUX)
    Blend: CC-PVDZ-JKFIT
    Number of shells: 294
    Number of basis function: 917
    Number of Cartesian functions: 917
    Spherical Harmonics?: false
    Max angular momentum: 3


  -Total Gradient:
     Atom            X                  Y                   Z
    ------   -----------------  -----------------  -----------------
       1       -0.000940962235    -0.000064544772    -0.000035720650
       2        0.000145043605     0.000012700055     0.000126625401
       3        0.000290221703     0.000200619594     0.000030581297
       4        0.000159826161    -0.000058852889     0.000036668806
       5        0.000005656605    -0.000018838653     0.000005049643
       6       -0.000012373134     0.000046149669    -0.000018203493
       7        0.000013962730    -0.000039074613     0.000014866651
       8        0.000004142480    -0.000002336450    -0.000004471817
       9        0.000000001736     0.000001935812     0.000002217025
      10        0.000000085753    -0.000001263388    -0.000000431983
      11       -0.000001298610     0.000000822283    -0.000000260933
      12        0.000003294716     0.000000789056    -0.000001219923
      13       -0.000001768393    -0.000000719181    -0.000000259457
      14        0.000318802835    -0.000078557809    -0.000133130749
      15        0.000018043602    -0.000008727575    -0.000028383064
      16       -0.000006844259     0.000004615592     0.000007423444
      17        0.000001350137     0.000000276659     0.000000171857
      18       -0.000001183818     0.000000332924    -0.000001775092
      19        0.000006698522    -0.000000893169     0.000002787271
      20        0.000009038081     0.000002805294    -0.000000010238
      21       -0.000011738210     0.000002761559    -0.000002524000


*** tstop() called on wr86 at Thu Dec  6 16:21:58 2018
Module time:
	user time   =      22.75 seconds =       0.38 minutes
	system time =       0.71 seconds =       0.01 minutes
	total time  =          1 seconds =       0.02 minutes
Total time:
	user time   =      95.32 seconds =       1.59 minutes
	system time =       3.27 seconds =       0.05 minutes
	total time  =          8 seconds =       0.13 minutes

  //>>>>>>>>>>>>>>>>>>>>>>>>>>>>>>>>>>>//
  //   Loading displacement 2 of 115   //
  //<<<<<<<<<<<<<<<<<<<<<<<<<<<<<<<<<<<//
gradient() will perform analytic gradient computation.

*** tstart() called on wr86
*** at Thu Dec  6 16:21:58 2018

   => Loading Basis Set <=

    Name: 6-31G(D)
    Role: ORBITAL
    Keyword: BASIS
    atoms 1, 4, 7, 10, 16                     entry C          line   111 file /usr/local/hpc1/software_molmod/psi4/psi4conda/share/psi4/basis/6-31g_d_.gbs 
    atoms 2-3, 5-6, 8-9, 11-13, 15, 17-19, 21 entry H          line    44 file /usr/local/hpc1/software_molmod/psi4/psi4conda/share/psi4/basis/6-31g_d_.gbs 
    atoms 14, 20                              entry O          line   145 file /usr/local/hpc1/software_molmod/psi4/psi4conda/share/psi4/basis/6-31g_d_.gbs 


         ---------------------------------------------------------
                                   SCF
            by Justin Turney, Rob Parrish, Andy Simmonett
                             and Daniel Smith
                              RHF Reference
                       16 Threads,  95367 MiB Core
         ---------------------------------------------------------

  ==> Geometry <==

    Molecular point group: c1
    Full point group: C1

    Geometry (in Angstrom), charge = 0, multiplicity = 1:

       Center              X                  Y                   Z               Mass       
    ------------   -----------------  -----------------  -----------------  -----------------
         C            0.341446764279    -0.334750333192    -0.027658258868    12.000000000000
         H            0.038035236909    -0.420308802753    -1.072099955451     1.007825032070
         H            1.125403078704     0.417946139831     0.017786492360     1.007825032070
         C            0.856552161875    -1.677376934177     0.466407045582    12.000000000000
         H            1.179755955581    -1.564662013411     1.498311244533     1.007825032070
         H            0.015992679758    -2.365306756695     0.479476129536     1.007825032070
         C            1.988593766776    -2.273491966179    -0.376547406711    12.000000000000
         H            2.182900991227    -3.282770993510    -0.023137507264     1.007825032070
         H            1.657974710642    -2.374975654226    -1.408592839430     1.007825032070
         C            3.297686688741    -1.481213183338    -0.338825299109    12.000000000000
         H            4.077888445348    -1.998600791135    -0.888921278643     1.007825032070
         H            3.190222501818    -0.495054352978    -0.778835214436     1.007825032070
         H            3.644573418427    -1.350858435936     0.682646306933     1.007825032070
         O           -0.742877616098     0.037527733068     0.775747065564    15.994914619560
         H           -1.063277611314     0.889441816684     0.500659234611     1.007825032070
         C           -3.243832904229     2.422952721605    -0.467187025064    12.000000000000
         H           -3.651343156040     3.319741913951    -0.923299808833     1.007825032070
         H           -3.867048443601     2.134556286504     0.373346637623     1.007825032070
         H           -3.255685851994     1.625993794143    -1.196025830607     1.007825032070
         O           -1.904059769331     2.608138730984    -0.081219786610    15.994914619560
         H           -1.850015879149     3.291213822767     0.572463951325     1.007825032070

  Running in c1 symmetry.

  Rotational constants: A =      0.21576  B =      0.02072  C =      0.01996 [cm^-1]
  Rotational constants: A =   6468.34867  B =    621.15935  C =    598.30787 [MHz]
  Nuclear repulsion =  310.637909750077768

  Charge       = 0
  Multiplicity = 1
  Electrons    = 60
  Nalpha       = 30
  Nbeta        = 30

  ==> Algorithm <==

  SCF Algorithm Type is DF.
  DIIS enabled.
  MOM disabled.
  Fractional occupation disabled.
  Guess Type is SAD.
  Energy threshold   = 1.00e-08
  Density threshold  = 1.00e-08
  Integral threshold = 0.00e+00

  ==> Primary Basis <==

  Basis Set: 6-31G(D)
    Blend: 6-31G(D)
    Number of shells: 70
    Number of basis function: 133
    Number of Cartesian functions: 133
    Spherical Harmonics?: false
    Max angular momentum: 2

   => Loading Basis Set <=

    Name: (6-31G(D) AUX)
    Role: JKFIT
    Keyword: DF_BASIS_SCF
    atoms 1, 4, 7, 10, 16                     entry C          line   121 file /usr/local/hpc1/software_molmod/psi4/psi4conda/share/psi4/basis/cc-pvdz-jkfit.gbs 
    atoms 2-3, 5-6, 8-9, 11-13, 15, 17-19, 21 entry H          line    51 file /usr/local/hpc1/software_molmod/psi4/psi4conda/share/psi4/basis/cc-pvdz-jkfit.gbs 
    atoms 14, 20                              entry O          line   221 file /usr/local/hpc1/software_molmod/psi4/psi4conda/share/psi4/basis/cc-pvdz-jkfit.gbs 

  ==> Pre-Iterations <==

   -------------------------------------------------------
    Irrep   Nso     Nmo     Nalpha   Nbeta   Ndocc  Nsocc
   -------------------------------------------------------
     A        133     133       0       0       0       0
   -------------------------------------------------------
    Total     133     133      30      30      30       0
   -------------------------------------------------------

  ==> Integral Setup <==

  ==> DiskDFJK: Density-Fitted J/K Matrices <==

    J tasked:                  Yes
    K tasked:                  Yes
    wK tasked:                  No
    OpenMP threads:             16
    Integrals threads:          16
    Memory (MB):             71525
    Algorithm:                Core
    Integral Cache:           NONE
    Schwarz Cutoff:          1E-12
    Fitting Condition:       1E-12

   => Auxiliary Basis Set <=

  Basis Set: (6-31G(D) AUX)
    Blend: CC-PVDZ-JKFIT
    Number of shells: 294
    Number of basis function: 917
    Number of Cartesian functions: 917
    Spherical Harmonics?: false
    Max angular momentum: 3

  Minimum eigenvalue in the overlap matrix is 4.1216323122E-03.
  Using Symmetric Orthogonalization.

  SCF Guess: Superposition of Atomic Densities via on-the-fly atomic UHF.

  ==> Iterations <==

                           Total Energy        Delta E     RMS |[F,P]|

   @DF-RHF iter   0:  -349.44965940700320   -3.49450e+02   1.40693e-01 
   @DF-RHF iter   1:  -347.01771766200949    2.43194e+00   1.13988e-02 
   @DF-RHF iter   2:  -347.16625130634958   -1.48534e-01   4.67085e-03 DIIS
   @DF-RHF iter   3:  -347.18325856171185   -1.70073e-02   1.71411e-03 DIIS
   @DF-RHF iter   4:  -347.18710258290633   -3.84402e-03   3.88442e-04 DIIS
   @DF-RHF iter   5:  -347.18732997324491   -2.27390e-04   1.00630e-04 DIIS
   @DF-RHF iter   6:  -347.18735076163375   -2.07884e-05   2.93637e-05 DIIS
   @DF-RHF iter   7:  -347.18735283534483   -2.07371e-06   8.82089e-06 DIIS
   @DF-RHF iter   8:  -347.18735306912538   -2.33781e-07   4.01004e-06 DIIS
   @DF-RHF iter   9:  -347.18735308612372   -1.69983e-08   1.07311e-06 DIIS
   @DF-RHF iter  10:  -347.18735308762450   -1.50078e-09   1.16735e-07 DIIS
   @DF-RHF iter  11:  -347.18735308769493   -7.04290e-11   4.68043e-08 DIIS
   @DF-RHF iter  12:  -347.18735308770101   -6.08225e-12   2.30653e-08 DIIS
   @DF-RHF iter  13:  -347.18735308770260   -1.59162e-12   5.14998e-09 DIIS

  ==> Post-Iterations <==

    Orbital Energies [Eh]
    ---------------------

    Doubly Occupied:                                                      

       1A    -20.581669     2A    -20.522549     3A    -11.280886  
       4A    -11.249459     5A    -11.209872     6A    -11.203700  
       7A    -11.199290     8A     -1.383165     9A     -1.333304  
      10A     -1.058650    11A     -0.958358    12A     -0.943796  
      13A     -0.856235    14A     -0.772566    15A     -0.715875  
      16A     -0.677676    17A     -0.638079    18A     -0.634096  
      19A     -0.613692    20A     -0.605123    21A     -0.572354  
      22A     -0.541768    23A     -0.525542    24A     -0.518685  
      25A     -0.492332    26A     -0.468724    27A     -0.462790  
      28A     -0.461737    29A     -0.439078    30A     -0.410779  

    Virtual:                                                              

      31A      0.205111    32A      0.238543    33A      0.268394  
      34A      0.279038    35A      0.287883    36A      0.302342  
      37A      0.315106    38A      0.319637    39A      0.321709  
      40A      0.335753    41A      0.345366    42A      0.352581  
      43A      0.364968    44A      0.384905    45A      0.394320  
      46A      0.429023    47A      0.442022    48A      0.473716  
      49A      0.484003    50A      0.728234    51A      0.733007  
      52A      0.751116    53A      0.755855    54A      0.769328  
      55A      0.775949    56A      0.780057    57A      0.806852  
      58A      0.860548    59A      0.903873    60A      0.941580  
      61A      0.976850    62A      1.001424    63A      1.025567  
      64A      1.047323    65A      1.116946    66A      1.125439  
      67A      1.140101    68A      1.152057    69A      1.161019  
      70A      1.164908    71A      1.172046    72A      1.180067  
      73A      1.190048    74A      1.206033    75A      1.212647  
      76A      1.223390    77A      1.244343    78A      1.254207  
      79A      1.262690    80A      1.265525    81A      1.283408  
      82A      1.331657    83A      1.371962    84A      1.395052  
      85A      1.451087    86A      1.520096    87A      1.648200  
      88A      1.699387    89A      1.714722    90A      1.723366  
      91A      1.747255    92A      1.828027    93A      1.853168  
      94A      1.859652    95A      1.895209    96A      1.974832  
      97A      2.022596    98A      2.060517    99A      2.120033  
     100A      2.146896   101A      2.215786   102A      2.276019  
     103A      2.279198   104A      2.327027   105A      2.352150  
     106A      2.371630   107A      2.420950   108A      2.433607  
     109A      2.468830   110A      2.487463   111A      2.587349  
     112A      2.645344   113A      2.654870   114A      2.682627  
     115A      2.703358   116A      2.728810   117A      2.749918  
     118A      2.784690   119A      2.801752   120A      2.841001  
     121A      2.914285   122A      2.984546   123A      2.998133  
     124A      3.126529   125A      3.150463   126A      3.308281  
     127A      4.195578   128A      4.398326   129A      4.579693  
     130A      4.635687   131A      4.708874   132A      4.852650  
     133A      4.960043  

    Final Occupation by Irrep:
              A 
    DOCC [    30 ]

  Energy converged.

  @DF-RHF Final Energy:  -347.18735308770260

   => Energetics <=

    Nuclear Repulsion Energy =            310.6379097500777675
    One-Electron Energy =               -1088.9868658304444580
    Two-Electron Energy =                 431.1616029926640294
    Total Energy =                       -347.1873530877026042



Properties will be evaluated at   0.000000,   0.000000,   0.000000 [a0]

Properties computed using the SCF density matrix

  Nuclear Dipole Moment: [e a0]
     X:     3.1985      Y:    -2.0250      Z:    -2.0274

  Electronic Dipole Moment: [e a0]
     X:    -3.7470      Y:     2.9854      Z:     1.7726

  Dipole Moment: [e a0]
     X:    -0.5485      Y:     0.9604      Z:    -0.2548     Total:     1.1350

  Dipole Moment: [D]
     X:    -1.3943      Y:     2.4411      Z:    -0.6476     Total:     2.8848


*** tstop() called on wr86 at Thu Dec  6 16:22:01 2018
Module time:
	user time   =      25.29 seconds =       0.42 minutes
	system time =       0.72 seconds =       0.01 minutes
	total time  =          3 seconds =       0.05 minutes
Total time:
	user time   =     120.77 seconds =       2.01 minutes
	system time =       3.99 seconds =       0.07 minutes
	total time  =         11 seconds =       0.18 minutes

*** tstart() called on wr86
*** at Thu Dec  6 16:22:01 2018


         ------------------------------------------------------------
                                   SCF GRAD                          
                          Rob Parrish, Justin Turney,                
                       Andy Simmonett, and Alex Sokolov              
         ------------------------------------------------------------

  ==> Geometry <==

    Molecular point group: c1
    Full point group: C1

    Geometry (in Angstrom), charge = 0, multiplicity = 1:

       Center              X                  Y                   Z               Mass       
    ------------   -----------------  -----------------  -----------------  -----------------
         C            0.341446764279    -0.334750333192    -0.027658258868    12.000000000000
         H            0.038035236909    -0.420308802753    -1.072099955451     1.007825032070
         H            1.125403078704     0.417946139831     0.017786492360     1.007825032070
         C            0.856552161875    -1.677376934177     0.466407045582    12.000000000000
         H            1.179755955581    -1.564662013411     1.498311244533     1.007825032070
         H            0.015992679758    -2.365306756695     0.479476129536     1.007825032070
         C            1.988593766776    -2.273491966179    -0.376547406711    12.000000000000
         H            2.182900991227    -3.282770993510    -0.023137507264     1.007825032070
         H            1.657974710642    -2.374975654226    -1.408592839430     1.007825032070
         C            3.297686688741    -1.481213183338    -0.338825299109    12.000000000000
         H            4.077888445348    -1.998600791135    -0.888921278643     1.007825032070
         H            3.190222501818    -0.495054352978    -0.778835214436     1.007825032070
         H            3.644573418427    -1.350858435936     0.682646306933     1.007825032070
         O           -0.742877616098     0.037527733068     0.775747065564    15.994914619560
         H           -1.063277611314     0.889441816684     0.500659234611     1.007825032070
         C           -3.243832904229     2.422952721605    -0.467187025064    12.000000000000
         H           -3.651343156040     3.319741913951    -0.923299808833     1.007825032070
         H           -3.867048443601     2.134556286504     0.373346637623     1.007825032070
         H           -3.255685851994     1.625993794143    -1.196025830607     1.007825032070
         O           -1.904059769331     2.608138730984    -0.081219786610    15.994914619560
         H           -1.850015879149     3.291213822767     0.572463951325     1.007825032070

  Nuclear repulsion =  310.637909750077768

  ==> Basis Set <==

  Basis Set: 6-31G(D)
    Blend: 6-31G(D)
    Number of shells: 70
    Number of basis function: 133
    Number of Cartesian functions: 133
    Spherical Harmonics?: false
    Max angular momentum: 2

  ==> DFJKGrad: Density-Fitted SCF Gradients <==

    Gradient:                    1
    J tasked:                  Yes
    K tasked:                  Yes
    wK tasked:                  No
    OpenMP threads:             16
    Integrals threads:          16
    Memory (MB):             71525
    Schwarz Cutoff:          0E+00
    Fitting Condition:       1E-12

   => Auxiliary Basis Set <=

  Basis Set: (6-31G(D) AUX)
    Blend: CC-PVDZ-JKFIT
    Number of shells: 294
    Number of basis function: 917
    Number of Cartesian functions: 917
    Spherical Harmonics?: false
    Max angular momentum: 3


  -Total Gradient:
     Atom            X                  Y                   Z
    ------   -----------------  -----------------  -----------------
       1        0.000958875666     0.000061863880     0.000031366821
       2       -0.000142033100    -0.000017872856    -0.000123238913
       3       -0.000293172760    -0.000202928623    -0.000031999300
       4       -0.000163127606     0.000055904161    -0.000034185400
       5       -0.000006322901     0.000020336600    -0.000007337999
       6        0.000015078895    -0.000046268771     0.000019644246
       7       -0.000013968398     0.000035122681    -0.000012341913
       8       -0.000005088614     0.000002280122     0.000002791619
       9        0.000003644747    -0.000001108966    -0.000001207420
      10        0.000001195799     0.000003962668    -0.000004121387
      11        0.000000320435    -0.000001895708    -0.000000244132
      12        0.000000299719    -0.000001664538     0.000002025659
      13       -0.000002200143    -0.000000775120    -0.000000368868
      14       -0.000323610661     0.000090998598     0.000140832408
      15       -0.000029798085     0.000002046588     0.000009377566
      16       -0.000012243675     0.000005186465     0.000005242737
      17        0.000002605754    -0.000000837289     0.000000717039
      18       -0.000001206591     0.000000697216    -0.000001582785
      19        0.000006208028    -0.000000384585     0.000001772567
      20        0.000013949322    -0.000009315623     0.000005925777
      21       -0.000009405824     0.000004653092    -0.000003068322


*** tstop() called on wr86 at Thu Dec  6 16:22:02 2018
Module time:
	user time   =      23.09 seconds =       0.38 minutes
	system time =       0.68 seconds =       0.01 minutes
	total time  =          1 seconds =       0.02 minutes
Total time:
	user time   =     143.89 seconds =       2.40 minutes
	system time =       4.67 seconds =       0.08 minutes
	total time  =         12 seconds =       0.20 minutes

  //>>>>>>>>>>>>>>>>>>>>>>>>>>>>>>>>>>>//
  //   Loading displacement 3 of 115   //
  //<<<<<<<<<<<<<<<<<<<<<<<<<<<<<<<<<<<//
gradient() will perform analytic gradient computation.

*** tstart() called on wr86
*** at Thu Dec  6 16:22:02 2018

   => Loading Basis Set <=

    Name: 6-31G(D)
    Role: ORBITAL
    Keyword: BASIS
    atoms 1, 4, 7, 10, 16                     entry C          line   111 file /usr/local/hpc1/software_molmod/psi4/psi4conda/share/psi4/basis/6-31g_d_.gbs 
    atoms 2-3, 5-6, 8-9, 11-13, 15, 17-19, 21 entry H          line    44 file /usr/local/hpc1/software_molmod/psi4/psi4conda/share/psi4/basis/6-31g_d_.gbs 
    atoms 14, 20                              entry O          line   145 file /usr/local/hpc1/software_molmod/psi4/psi4conda/share/psi4/basis/6-31g_d_.gbs 


         ---------------------------------------------------------
                                   SCF
            by Justin Turney, Rob Parrish, Andy Simmonett
                             and Daniel Smith
                              RHF Reference
                       16 Threads,  95367 MiB Core
         ---------------------------------------------------------

  ==> Geometry <==

    Molecular point group: c1
    Full point group: C1

    Geometry (in Angstrom), charge = 0, multiplicity = 1:

       Center              X                  Y                   Z               Mass       
    ------------   -----------------  -----------------  -----------------  -----------------
         C            0.340728127337    -0.335467571185    -0.027658349749    12.000000000000
         H            0.038134158959    -0.420212698567    -1.072101388497     1.007825032070
         H            1.125491726250     0.418046736035     0.017791855087     1.007825032070
         C            0.856655752580    -1.677280117416     0.466403710932    12.000000000000
         H            1.179855168144    -1.564566492628     1.498309422715     1.007825032070
         H            0.016101630866    -2.365216592188     0.479467393152     1.007825032070
         C            1.988704893800    -2.273383122794    -0.376549125289    12.000000000000
         H            2.183018851319    -3.282661937028    -0.023142319237     1.007825032070
         H            1.658090128051    -2.374865572594    -1.408596054196     1.007825032070
         C            3.297791463635    -1.481094195522    -0.338819642313    12.000000000000
         H            4.077999146850    -1.998473629300    -0.888914904038     1.007825032070
         H            3.190321018389    -0.494934574134    -0.778826256239     1.007825032070
         H            3.644673711904    -1.350740519265     0.682653622278     1.007825032070
         O           -0.742788545198     0.037610834439     0.775744690962    15.994914619560
         H           -1.063194302258     0.889523423247     0.500658941765     1.007825032070
         C           -3.243758367075     2.423020794056    -0.467188998915    12.000000000000
         H           -3.651274120579     3.319808480023    -0.923299828982     1.007825032070
         H           -3.866974485573     2.134616338862     0.373341482552     1.007825032070
         H           -3.255602586820     1.626064482300    -1.196030806519     1.007825032070
         O           -1.903987993462     2.608215894636    -0.081216537550    15.994914619560
         H           -1.849951682220     3.291288981504     0.572469921991     1.007825032070

  Running in c1 symmetry.

  Rotational constants: A =      0.21576  B =      0.02072  C =      0.01996 [cm^-1]
  Rotational constants: A =   6468.27595  B =    621.15979  C =    598.30827 [MHz]
  Nuclear repulsion =  310.644385416212856

  Charge       = 0
  Multiplicity = 1
  Electrons    = 60
  Nalpha       = 30
  Nbeta        = 30

  ==> Algorithm <==

  SCF Algorithm Type is DF.
  DIIS enabled.
  MOM disabled.
  Fractional occupation disabled.
  Guess Type is SAD.
  Energy threshold   = 1.00e-08
  Density threshold  = 1.00e-08
  Integral threshold = 0.00e+00

  ==> Primary Basis <==

  Basis Set: 6-31G(D)
    Blend: 6-31G(D)
    Number of shells: 70
    Number of basis function: 133
    Number of Cartesian functions: 133
    Spherical Harmonics?: false
    Max angular momentum: 2

   => Loading Basis Set <=

    Name: (6-31G(D) AUX)
    Role: JKFIT
    Keyword: DF_BASIS_SCF
    atoms 1, 4, 7, 10, 16                     entry C          line   121 file /usr/local/hpc1/software_molmod/psi4/psi4conda/share/psi4/basis/cc-pvdz-jkfit.gbs 
    atoms 2-3, 5-6, 8-9, 11-13, 15, 17-19, 21 entry H          line    51 file /usr/local/hpc1/software_molmod/psi4/psi4conda/share/psi4/basis/cc-pvdz-jkfit.gbs 
    atoms 14, 20                              entry O          line   221 file /usr/local/hpc1/software_molmod/psi4/psi4conda/share/psi4/basis/cc-pvdz-jkfit.gbs 

  ==> Pre-Iterations <==

   -------------------------------------------------------
    Irrep   Nso     Nmo     Nalpha   Nbeta   Ndocc  Nsocc
   -------------------------------------------------------
     A        133     133       0       0       0       0
   -------------------------------------------------------
    Total     133     133      30      30      30       0
   -------------------------------------------------------

  ==> Integral Setup <==

  ==> DiskDFJK: Density-Fitted J/K Matrices <==

    J tasked:                  Yes
    K tasked:                  Yes
    wK tasked:                  No
    OpenMP threads:             16
    Integrals threads:          16
    Memory (MB):             71525
    Algorithm:                Core
    Integral Cache:           NONE
    Schwarz Cutoff:          1E-12
    Fitting Condition:       1E-12

   => Auxiliary Basis Set <=

  Basis Set: (6-31G(D) AUX)
    Blend: CC-PVDZ-JKFIT
    Number of shells: 294
    Number of basis function: 917
    Number of Cartesian functions: 917
    Spherical Harmonics?: false
    Max angular momentum: 3

  Minimum eigenvalue in the overlap matrix is 4.1196759581E-03.
  Using Symmetric Orthogonalization.

  SCF Guess: Superposition of Atomic Densities via on-the-fly atomic UHF.

  ==> Iterations <==

                           Total Energy        Delta E     RMS |[F,P]|

   @DF-RHF iter   0:  -349.50467412975405   -3.49505e+02   1.27226e-01 
   @DF-RHF iter   1:  -347.01890331784176    2.48577e+00   1.03358e-02 
   @DF-RHF iter   2:  -347.17012842344849   -1.51225e-01   4.04517e-03 DIIS
   @DF-RHF iter   3:  -347.18462520440124   -1.44968e-02   1.61829e-03 DIIS
   @DF-RHF iter   4:  -347.18710347352976   -2.47827e-03   4.32036e-04 DIIS
   @DF-RHF iter   5:  -347.18732806134818   -2.24588e-04   9.40420e-05 DIIS
   @DF-RHF iter   6:  -347.18735027941710   -2.22181e-05   4.06551e-05 DIIS
   @DF-RHF iter   7:  -347.18735282691171   -2.54749e-06   9.01082e-06 DIIS
   @DF-RHF iter   8:  -347.18735307152804   -2.44616e-07   3.00703e-06 DIIS
   @DF-RHF iter   9:  -347.18735308473572   -1.32077e-08   8.82216e-07 DIIS
   @DF-RHF iter  10:  -347.18735308596365   -1.22793e-09   2.41461e-07 DIIS
   @DF-RHF iter  11:  -347.18735308604431   -8.06608e-11   8.07027e-08 DIIS
   @DF-RHF iter  12:  -347.18735308605272   -8.41283e-12   2.61031e-08 DIIS
   @DF-RHF iter  13:  -347.18735308605403   -1.30740e-12   5.31088e-09 DIIS

  ==> Post-Iterations <==

    Orbital Energies [Eh]
    ---------------------

    Doubly Occupied:                                                      

       1A    -20.581681     2A    -20.522579     3A    -11.280896  
       4A    -11.249502     5A    -11.209889     6A    -11.203689  
       7A    -11.199276     8A     -1.383177     9A     -1.333468  
      10A     -1.058681    11A     -0.958404    12A     -0.943807  
      13A     -0.856186    14A     -0.772550    15A     -0.715891  
      16A     -0.677781    17A     -0.638054    18A     -0.634109  
      19A     -0.613709    20A     -0.605166    21A     -0.572318  
      22A     -0.541864    23A     -0.525540    24A     -0.518704  
      25A     -0.492330    26A     -0.468747    27A     -0.462804  
      28A     -0.461744    29A     -0.439121    30A     -0.410635  

    Virtual:                                                              

      31A      0.205101    32A      0.238543    33A      0.268388  
      34A      0.279001    35A      0.287904    36A      0.302339  
      37A      0.315097    38A      0.319628    39A      0.321705  
      40A      0.335772    41A      0.345354    42A      0.352555  
      43A      0.364972    44A      0.384906    45A      0.394309  
      46A      0.428987    47A      0.442123    48A      0.473816  
      49A      0.484148    50A      0.728223    51A      0.733007  
      52A      0.751104    53A      0.755837    54A      0.769376  
      55A      0.775981    56A      0.780060    57A      0.806838  
      58A      0.860614    59A      0.903949    60A      0.941591  
      61A      0.977132    62A      1.001384    63A      1.025476  
      64A      1.047315    65A      1.116945    66A      1.125485  
      67A      1.140026    68A      1.151917    69A      1.160962  
      70A      1.164885    71A      1.172022    72A      1.180029  
      73A      1.190000    74A      1.206006    75A      1.212631  
      76A      1.223335    77A      1.244316    78A      1.254138  
      79A      1.262659    80A      1.265447    81A      1.283331  
      82A      1.331575    83A      1.371922    84A      1.395037  
      85A      1.451070    86A      1.520103    87A      1.648191  
      88A      1.699288    89A      1.714767    90A      1.723494  
      91A      1.747378    92A      1.827991    93A      1.853167  
      94A      1.859651    95A      1.895305    96A      1.974914  
      97A      2.022558    98A      2.060369    99A      2.120039  
     100A      2.146901   101A      2.215698   102A      2.275982  
     103A      2.279411   104A      2.327023   105A      2.352023  
     106A      2.371617   107A      2.420941   108A      2.433598  
     109A      2.468985   110A      2.487671   111A      2.587546  
     112A      2.645209   113A      2.654848   114A      2.682616  
     115A      2.703595   116A      2.728800   117A      2.749835  
     118A      2.784824   119A      2.801752   120A      2.841096  
     121A      2.914396   122A      2.984818   123A      2.998301  
     124A      3.126992   125A      3.150458   126A      3.308378  
     127A      4.195612   128A      4.398487   129A      4.579719  
     130A      4.635678   131A      4.708847   132A      4.852648  
     133A      4.960045  

    Final Occupation by Irrep:
              A 
    DOCC [    30 ]

  Energy converged.

  @DF-RHF Final Energy:  -347.18735308605403

   => Energetics <=

    Nuclear Repulsion Energy =            310.6443854162128559
    One-Electron Energy =               -1088.9988765250527649
    Two-Electron Energy =                 431.1671380227859345
    Total Energy =                       -347.1873530860540313



Properties will be evaluated at   0.000000,   0.000000,   0.000000 [a0]

Properties computed using the SCF density matrix

  Nuclear Dipole Moment: [e a0]
     X:     3.1997      Y:    -2.0238      Z:    -2.0274

  Electronic Dipole Moment: [e a0]
     X:    -3.7493      Y:     2.9836      Z:     1.7726

  Dipole Moment: [e a0]
     X:    -0.5496      Y:     0.9599      Z:    -0.2548     Total:     1.1350

  Dipole Moment: [D]
     X:    -1.3968      Y:     2.4397      Z:    -0.6476     Total:     2.8849


*** tstop() called on wr86 at Thu Dec  6 16:22:05 2018
Module time:
	user time   =      27.35 seconds =       0.46 minutes
	system time =       0.68 seconds =       0.01 minutes
	total time  =          3 seconds =       0.05 minutes
Total time:
	user time   =     171.39 seconds =       2.86 minutes
	system time =       5.36 seconds =       0.09 minutes
	total time  =         15 seconds =       0.25 minutes

*** tstart() called on wr86
*** at Thu Dec  6 16:22:05 2018


         ------------------------------------------------------------
                                   SCF GRAD                          
                          Rob Parrish, Justin Turney,                
                       Andy Simmonett, and Alex Sokolov              
         ------------------------------------------------------------

  ==> Geometry <==

    Molecular point group: c1
    Full point group: C1

    Geometry (in Angstrom), charge = 0, multiplicity = 1:

       Center              X                  Y                   Z               Mass       
    ------------   -----------------  -----------------  -----------------  -----------------
         C            0.340728127337    -0.335467571185    -0.027658349749    12.000000000000
         H            0.038134158959    -0.420212698567    -1.072101388497     1.007825032070
         H            1.125491726250     0.418046736035     0.017791855087     1.007825032070
         C            0.856655752580    -1.677280117416     0.466403710932    12.000000000000
         H            1.179855168144    -1.564566492628     1.498309422715     1.007825032070
         H            0.016101630866    -2.365216592188     0.479467393152     1.007825032070
         C            1.988704893800    -2.273383122794    -0.376549125289    12.000000000000
         H            2.183018851319    -3.282661937028    -0.023142319237     1.007825032070
         H            1.658090128051    -2.374865572594    -1.408596054196     1.007825032070
         C            3.297791463635    -1.481094195522    -0.338819642313    12.000000000000
         H            4.077999146850    -1.998473629300    -0.888914904038     1.007825032070
         H            3.190321018389    -0.494934574134    -0.778826256239     1.007825032070
         H            3.644673711904    -1.350740519265     0.682653622278     1.007825032070
         O           -0.742788545198     0.037610834439     0.775744690962    15.994914619560
         H           -1.063194302258     0.889523423247     0.500658941765     1.007825032070
         C           -3.243758367075     2.423020794056    -0.467188998915    12.000000000000
         H           -3.651274120579     3.319808480023    -0.923299828982     1.007825032070
         H           -3.866974485573     2.134616338862     0.373341482552     1.007825032070
         H           -3.255602586820     1.626064482300    -1.196030806519     1.007825032070
         O           -1.903987993462     2.608215894636    -0.081216537550    15.994914619560
         H           -1.849951682220     3.291288981504     0.572469921991     1.007825032070

  Nuclear repulsion =  310.644385416212742

  ==> Basis Set <==

  Basis Set: 6-31G(D)
    Blend: 6-31G(D)
    Number of shells: 70
    Number of basis function: 133
    Number of Cartesian functions: 133
    Spherical Harmonics?: false
    Max angular momentum: 2

  ==> DFJKGrad: Density-Fitted SCF Gradients <==

    Gradient:                    1
    J tasked:                  Yes
    K tasked:                  Yes
    wK tasked:                  No
    OpenMP threads:             16
    Integrals threads:          16
    Memory (MB):             71525
    Schwarz Cutoff:          0E+00
    Fitting Condition:       1E-12

   => Auxiliary Basis Set <=

  Basis Set: (6-31G(D) AUX)
    Blend: CC-PVDZ-JKFIT
    Number of shells: 294
    Number of basis function: 917
    Number of Cartesian functions: 917
    Spherical Harmonics?: false
    Max angular momentum: 3


  -Total Gradient:
     Atom            X                  Y                   Z
    ------   -----------------  -----------------  -----------------
       1       -0.000055193258    -0.000968389512    -0.000001699221
       2        0.000015213179     0.000104488071     0.000027916460
       3        0.000198709749     0.000307459873     0.000025707484
       4       -0.000034635195     0.000312449827    -0.000086162542
       5        0.000002751061    -0.000004857960     0.000003345599
       6       -0.000013711997     0.000040156454    -0.000016262177
       7       -0.000009851141     0.000009533295     0.000005293902
       8        0.000001043309    -0.000003406809    -0.000001630819
       9        0.000002698115     0.000000184195    -0.000001096233
      10       -0.000000433568    -0.000003535587    -0.000001091642
      11        0.000000859282     0.000001090494    -0.000000740678
      12        0.000001090794     0.000001945792    -0.000001052180
      13       -0.000001930541    -0.000000623638    -0.000000038405
      14       -0.000042697497     0.000190360524     0.000001968216
      15       -0.000063361409     0.000008083944     0.000038359814
      16       -0.000010952170     0.000004505688     0.000005478968
      17        0.000002283814    -0.000000393472     0.000000608257
      18       -0.000001037101     0.000000611194    -0.000001596298
      19        0.000006497808    -0.000000512170     0.000002233970
      20        0.000013486247    -0.000003220405     0.000003332066
      21       -0.000010829480     0.000004070194    -0.000002874541


*** tstop() called on wr86 at Thu Dec  6 16:22:06 2018
Module time:
	user time   =      23.46 seconds =       0.39 minutes
	system time =       0.63 seconds =       0.01 minutes
	total time  =          1 seconds =       0.02 minutes
Total time:
	user time   =     194.87 seconds =       3.25 minutes
	system time =       5.99 seconds =       0.10 minutes
	total time  =         16 seconds =       0.27 minutes

  //>>>>>>>>>>>>>>>>>>>>>>>>>>>>>>>>>>>//
  //   Loading displacement 4 of 115   //
  //<<<<<<<<<<<<<<<<<<<<<<<<<<<<<<<<<<<//
gradient() will perform analytic gradient computation.

*** tstart() called on wr86
*** at Thu Dec  6 16:22:07 2018

   => Loading Basis Set <=

    Name: 6-31G(D)
    Role: ORBITAL
    Keyword: BASIS
    atoms 1, 4, 7, 10, 16                     entry C          line   111 file /usr/local/hpc1/software_molmod/psi4/psi4conda/share/psi4/basis/6-31g_d_.gbs 
    atoms 2-3, 5-6, 8-9, 11-13, 15, 17-19, 21 entry H          line    44 file /usr/local/hpc1/software_molmod/psi4/psi4conda/share/psi4/basis/6-31g_d_.gbs 
    atoms 14, 20                              entry O          line   145 file /usr/local/hpc1/software_molmod/psi4/psi4conda/share/psi4/basis/6-31g_d_.gbs 


         ---------------------------------------------------------
                                   SCF
            by Justin Turney, Rob Parrish, Andy Simmonett
                             and Daniel Smith
                              RHF Reference
                       16 Threads,  95367 MiB Core
         ---------------------------------------------------------

  ==> Geometry <==

    Molecular point group: c1
    Full point group: C1

    Geometry (in Angstrom), charge = 0, multiplicity = 1:

       Center              X                  Y                   Z               Mass       
    ------------   -----------------  -----------------  -----------------  -----------------
         C            0.340728127337    -0.334030356031    -0.027658026417    12.000000000000
         H            0.038126962689    -0.420401253551    -1.072099705177     1.007825032070
         H            1.125494747940     0.417854249919     0.017786367657     1.007825032070
         C            0.856643633812    -1.677468542130     0.466408119568    12.000000000000
         H            1.179847325424    -1.564753039952     1.498312286989     1.007825032070
         H            0.016084101243    -2.365398297054     0.479477516784     1.007825032070
         C            1.988685286170    -2.273584148638    -0.376545862721    12.000000000000
         H            2.182992400931    -3.282862982808    -0.023135351329     1.007825032070
         H            1.658066332947    -2.375068417652    -1.408591271280     1.007825032070
         C            3.297778260607    -1.481305437050    -0.338824079500    12.000000000000
         H            4.077980039030    -1.998693422714    -0.888919672696     1.007825032070
         H            3.190314190969    -0.495146856770    -0.778834583961     1.007825032070
         H            3.644664890570    -1.350950116035     0.682647487206     1.007825032070
         O           -0.742786054886     0.037436420373     0.775746964309    15.994914619560
         H           -1.063185959993     0.889350365699     0.500658600133     1.007825032070
         C           -3.243741040257     2.422860859180    -0.467188790551    12.000000000000
         H           -3.651251179438     3.319649813407    -0.923302143126     1.007825032070
         H           -3.866956689903     2.134464960880     0.373344974558     1.007825032070
         H           -3.255593967066     1.625901505628    -1.196027130523     1.007825032070
         O           -1.903967933346     2.608046999108    -0.081221517586    15.994914619560
         H           -1.849924064220     3.291122469948     0.572461825991     1.007825032070

  Running in c1 symmetry.

  Rotational constants: A =      0.21576  B =      0.02072  C =      0.01996 [cm^-1]
  Rotational constants: A =   6468.35429  B =    621.16937  C =    598.31716 [MHz]
  Nuclear repulsion =  310.638099342654357

  Charge       = 0
  Multiplicity = 1
  Electrons    = 60
  Nalpha       = 30
  Nbeta        = 30

  ==> Algorithm <==

  SCF Algorithm Type is DF.
  DIIS enabled.
  MOM disabled.
  Fractional occupation disabled.
  Guess Type is SAD.
  Energy threshold   = 1.00e-08
  Density threshold  = 1.00e-08
  Integral threshold = 0.00e+00

  ==> Primary Basis <==

  Basis Set: 6-31G(D)
    Blend: 6-31G(D)
    Number of shells: 70
    Number of basis function: 133
    Number of Cartesian functions: 133
    Spherical Harmonics?: false
    Max angular momentum: 2

   => Loading Basis Set <=

    Name: (6-31G(D) AUX)
    Role: JKFIT
    Keyword: DF_BASIS_SCF
    atoms 1, 4, 7, 10, 16                     entry C          line   121 file /usr/local/hpc1/software_molmod/psi4/psi4conda/share/psi4/basis/cc-pvdz-jkfit.gbs 
    atoms 2-3, 5-6, 8-9, 11-13, 15, 17-19, 21 entry H          line    51 file /usr/local/hpc1/software_molmod/psi4/psi4conda/share/psi4/basis/cc-pvdz-jkfit.gbs 
    atoms 14, 20                              entry O          line   221 file /usr/local/hpc1/software_molmod/psi4/psi4conda/share/psi4/basis/cc-pvdz-jkfit.gbs 

  ==> Pre-Iterations <==

   -------------------------------------------------------
    Irrep   Nso     Nmo     Nalpha   Nbeta   Ndocc  Nsocc
   -------------------------------------------------------
     A        133     133       0       0       0       0
   -------------------------------------------------------
    Total     133     133      30      30      30       0
   -------------------------------------------------------

  ==> Integral Setup <==

  ==> DiskDFJK: Density-Fitted J/K Matrices <==

    J tasked:                  Yes
    K tasked:                  Yes
    wK tasked:                  No
    OpenMP threads:             16
    Integrals threads:          16
    Memory (MB):             71525
    Algorithm:                Core
    Integral Cache:           NONE
    Schwarz Cutoff:          1E-12
    Fitting Condition:       1E-12

   => Auxiliary Basis Set <=

  Basis Set: (6-31G(D) AUX)
    Blend: CC-PVDZ-JKFIT
    Number of shells: 294
    Number of basis function: 917
    Number of Cartesian functions: 917
    Spherical Harmonics?: false
    Max angular momentum: 3

  Minimum eigenvalue in the overlap matrix is 4.1244600179E-03.
  Using Symmetric Orthogonalization.

  SCF Guess: Superposition of Atomic Densities via on-the-fly atomic UHF.

  ==> Iterations <==

                           Total Energy        Delta E     RMS |[F,P]|

   @DF-RHF iter   0:  -349.27651424093415   -3.49277e+02   1.45394e-01 
   @DF-RHF iter   1:  -346.95522175753956    2.32129e+00   1.87939e-02 
[...]
  Force const [mDyne/A]         1.6989              1.7680              1.7051        
  Turning point v=0 [a0]        0.2625              0.2577              0.2629        
  RMS dev v=0 [a0 u^1/2]        0.1910              0.1907              0.1904        
  Char temp [K]               2374.5262           2381.6853           2390.3501       
  ----------------------------------------------------------------------------------
      1   C                0.01 -0.01  0.00   -0.02  0.03 -0.00   -0.00  0.01 -0.00   
      2   H                0.03  0.06 -0.01    0.07 -0.08 -0.02    0.01 -0.02 -0.01   
      3   H               -0.01  0.01 -0.07    0.08 -0.07 -0.03    0.02 -0.02 -0.00   
      4   C                0.02  0.03 -0.04   -0.01 -0.02  0.02    0.00 -0.00  0.00   
      5   H               -0.28 -0.25  0.09    0.12  0.15 -0.04    0.01  0.01 -0.00   
      6   H                0.06 -0.03  0.38   -0.03  0.01 -0.19   -0.00  0.00 -0.01   
      7   C               -0.00  0.02 -0.01    0.01 -0.05 -0.04    0.00 -0.00 -0.00   
      8   H                0.02 -0.00 -0.08    0.06  0.12  0.39    0.00  0.01  0.02   
      9   H               -0.03 -0.10  0.01   -0.09  0.39 -0.04   -0.00  0.02 -0.00   
     10   C               -0.01  0.02 -0.04    0.02 -0.02 -0.03    0.00 -0.00 -0.00   
     11   H                0.13 -0.30  0.47   -0.13 -0.31  0.07   -0.00 -0.02  0.01   
     12   H               -0.34  0.09  0.24   -0.10  0.20  0.48   -0.01  0.01  0.02   
     13   H                0.34 -0.07 -0.13   -0.02  0.39 -0.06    0.00  0.01 -0.00   
     14   O               -0.00  0.00 -0.00   -0.00 -0.01  0.01   -0.00 -0.00  0.00   
     15   H               -0.02  0.00  0.02    0.07 -0.00 -0.07    0.03 -0.00 -0.03   
     16   C               -0.00 -0.01  0.01   -0.00  0.00  0.00    0.04 -0.03 -0.02   
     17   H               -0.03 -0.05 -0.07    0.03  0.00 -0.02   -0.47  0.02  0.48   
     18   H                0.03  0.06  0.05    0.02 -0.04  0.00   -0.37  0.56 -0.10   
     19   H                0.01  0.09 -0.10   -0.02 -0.01  0.01    0.26 -0.03 -0.00   
     20   O               -0.00 -0.00  0.00   -0.00  0.00  0.00    0.01 -0.01 -0.01   
     21   H                0.00 -0.00  0.00    0.00  0.00 -0.00   -0.07  0.00 -0.01   

  Vibration                       49                  50                  51          
  Freq [cm^-1]                1685.7043           3156.9840           3188.7294       
  Irrep                           A                   A                   A           
  Reduced mass [u]              1.0928              1.0657              1.0625        
  Force const [mDyne/A]         1.8295              6.2582              6.3655        
  Turning point v=0 [a0]        0.2557              0.1892              0.1885        
  RMS dev v=0 [a0 u^1/2]        0.1890              0.1381              0.1374        
  Char temp [K]               2425.3495           4542.1901           4587.8646       
  ----------------------------------------------------------------------------------
      1   C                0.04  0.04 -0.07   -0.01  0.01 -0.07    0.01  0.01 -0.00   
      2   H               -0.51 -0.44  0.16    0.28  0.08  0.89    0.02  0.00  0.05   
      3   H                0.01 -0.02  0.70   -0.24 -0.22 -0.04   -0.08 -0.08 -0.01   
      4   C                0.00  0.00 -0.01    0.00  0.00  0.01    0.01  0.01  0.00   
      5   H               -0.07 -0.08  0.02   -0.02 -0.01 -0.06   -0.01 -0.00 -0.03   
      6   H                0.03 -0.03  0.11   -0.02 -0.01  0.00   -0.11 -0.10 -0.00   
      7   C                0.00 -0.00 -0.00    0.00  0.00  0.01   -0.01 -0.04 -0.05   
      8   H               -0.00  0.01  0.03    0.00 -0.03  0.02   -0.09  0.44 -0.17   
      9   H               -0.02  0.02 -0.00   -0.03 -0.01 -0.10    0.25  0.06  0.77   
     10   C                0.00 -0.00 -0.00   -0.00 -0.00  0.00   -0.01 -0.00  0.01   
     11   H               -0.01 -0.02  0.00    0.00 -0.00 -0.00    0.15 -0.11 -0.11   
     12   H                0.00  0.01  0.03   -0.00  0.02 -0.01   -0.02  0.12 -0.05   
     13   H                0.00  0.03 -0.00    0.00  0.00  0.01    0.02  0.01  0.07   
     14   O                0.00  0.00 -0.00    0.00 -0.00 -0.00    0.00 -0.00 -0.00   
     15   H                0.00  0.00 -0.00    0.01 -0.01 -0.00    0.00 -0.00 -0.00   
     16   C               -0.00 -0.00 -0.00   -0.00 -0.00  0.00    0.00 -0.00  0.00   
     17   H                0.01  0.01  0.00   -0.00  0.00 -0.00   -0.00  0.00 -0.00   
     18   H                0.01  0.01  0.01    0.00  0.00 -0.00   -0.00 -0.00  0.00   
     19   H                0.01 -0.00 -0.00    0.00 -0.00 -0.00    0.00 -0.00 -0.00   
     20   O                0.00 -0.00  0.00    0.00 -0.00  0.00    0.00 -0.00  0.00   
     21   H                0.00  0.00 -0.00   -0.00  0.00 -0.00    0.00  0.00 -0.00   

  Vibration                       52                  53                  54          
  Freq [cm^-1]                3189.2927           3200.3548           3203.3069       
  Irrep                           A                   A                   A           
  Reduced mass [u]              1.0914              1.0473              1.0678        
  Force const [mDyne/A]         6.5410              6.3199              6.4557        
  Turning point v=0 [a0]        0.1860              0.1895              0.1876        
  RMS dev v=0 [a0 u^1/2]        0.1374              0.1372              0.1371        
  Char temp [K]               4588.6751           4604.5910           4608.8384       
  ----------------------------------------------------------------------------------
      1   C               -0.06 -0.05 -0.03   -0.01 -0.01 -0.00   -0.01 -0.01 -0.00   
      2   H                0.08  0.01  0.27    0.01 -0.00  0.02    0.01  0.00  0.04   
      3   H                0.62  0.60  0.05    0.17  0.16  0.01    0.11  0.10  0.01   
      4   C                0.01  0.01  0.01   -0.00 -0.01  0.03    0.01  0.02 -0.05   
      5   H               -0.05 -0.02 -0.17   -0.13 -0.05 -0.39    0.19  0.07  0.56   
      6   H               -0.13 -0.10  0.00    0.19  0.16  0.01   -0.36 -0.29 -0.01   
      7   C               -0.00 -0.01 -0.01    0.00  0.01  0.00    0.01 -0.02  0.03   
      8   H               -0.01  0.07 -0.03    0.02 -0.14  0.05   -0.05  0.29 -0.10   
      9   H                0.03  0.01  0.09   -0.03 -0.01 -0.08   -0.10 -0.03 -0.31   
     10   C                0.01  0.01  0.00   -0.04 -0.02 -0.01   -0.02 -0.00 -0.01   
     11   H               -0.08  0.06  0.06    0.31 -0.22 -0.23    0.18 -0.12 -0.13   
     12   H                0.03 -0.21  0.09   -0.05  0.36 -0.17   -0.02  0.12 -0.05   
     13   H               -0.05 -0.02 -0.15    0.17  0.06  0.54    0.10  0.04  0.32   
     14   O               -0.00  0.00  0.00   -0.00  0.00  0.00   -0.00  0.00  0.00   
     15   H               -0.00  0.00  0.00   -0.00  0.00 -0.00   -0.00  0.00  0.00   
     16   C                0.00  0.00 -0.00    0.00  0.00 -0.00   -0.00  0.00  0.00   
     17   H                0.00  0.00 -0.00   -0.00  0.00 -0.00    0.01 -0.03  0.02   
     18   H               -0.00 -0.00  0.00   -0.00 -0.00  0.00    0.02  0.01 -0.03   
     19   H                0.00 -0.00 -0.00    0.00 -0.00 -0.00   -0.00  0.01  0.01   
     20   O                0.00  0.00 -0.00    0.00  0.00 -0.00   -0.00  0.00 -0.00   
     21   H               -0.00  0.00  0.00   -0.00  0.00  0.00   -0.00  0.00 -0.00   

  Vibration                       55                  56                  57          
  Freq [cm^-1]                3205.0792           3223.5326           3246.4272       
  Irrep                           A                   A                   A           
  Reduced mass [u]              1.0351              1.0909              1.1049        
  Force const [mDyne/A]         6.2647              6.6788              6.8607        
  Turning point v=0 [a0]        0.1905              0.1850              0.1832        
  RMS dev v=0 [a0 u^1/2]        0.1370              0.1367              0.1362        
  Char temp [K]               4611.3883           4637.9386           4670.8788       
  ----------------------------------------------------------------------------------
      1   C               -0.00 -0.00  0.00    0.00  0.01  0.00   -0.02 -0.01 -0.01   
      2   H               -0.00 -0.00 -0.00   -0.01 -0.00 -0.04    0.04  0.01  0.13   
      3   H                0.00  0.00  0.00   -0.05 -0.05 -0.00    0.14  0.14  0.01   
      4   C                0.00  0.00 -0.00   -0.02 -0.02  0.02   -0.06 -0.04 -0.04   
      5   H                0.01  0.00  0.03   -0.09 -0.03 -0.26    0.17  0.05  0.53   
      6   H               -0.01 -0.01 -0.00    0.27  0.22  0.00    0.56  0.46 -0.01   
      7   C                0.00 -0.00  0.00    0.02 -0.06  0.05   -0.00 -0.00 -0.01   
      8   H               -0.00  0.02 -0.01   -0.14  0.71 -0.25    0.00 -0.00  0.00   
      9   H               -0.01 -0.00 -0.02   -0.10 -0.04 -0.32    0.04  0.01  0.12   
     10   C               -0.00 -0.00 -0.00   -0.00  0.02 -0.02   -0.01  0.01  0.02   
     11   H                0.01 -0.00 -0.00   -0.04  0.03  0.02    0.16 -0.11 -0.11   
     12   H               -0.00  0.00 -0.00    0.03 -0.26  0.11   -0.01  0.04 -0.01   
     13   H                0.00  0.00  0.02    0.02  0.01  0.06   -0.05 -0.02 -0.15   
     14   O               -0.00  0.00 -0.00    0.00 -0.00 -0.00    0.00  0.00  0.00   
     15   H                0.00 -0.01  0.00    0.00 -0.00 -0.00    0.00  0.00  0.00   
     16   C                0.05 -0.01 -0.00   -0.00  0.00 -0.00   -0.00  0.00 -0.00   
     17   H               -0.24  0.57 -0.29    0.00 -0.00  0.00    0.00 -0.01  0.00   
     18   H               -0.36 -0.18  0.52    0.00  0.00 -0.00   -0.00 -0.00  0.00   
     19   H                0.00 -0.24 -0.22   -0.00  0.00  0.00    0.00 -0.00 -0.00   
     20   O                0.00  0.00  0.00    0.00 -0.00  0.00    0.00  0.00  0.00   
     21   H                0.00  0.00  0.00    0.00 -0.00 -0.00   -0.00  0.00  0.00   

  Vibration                       58                  59                  60          
  Freq [cm^-1]                3258.5764           3261.3527           3267.1693       
  Irrep                           A                   A                   A           
  Reduced mass [u]              1.1026              1.1074              1.1023        
  Force const [mDyne/A]         6.8978              6.9401              6.9327        
  Turning point v=0 [a0]        0.1831              0.1826              0.1828        
  RMS dev v=0 [a0 u^1/2]        0.1359              0.1359              0.1357        
  Char temp [K]               4688.3588           4692.3532           4700.7220       
  ----------------------------------------------------------------------------------
      1   C               -0.00 -0.00 -0.00   -0.00 -0.00  0.00   -0.01 -0.01 -0.00   
      2   H                0.02  0.00  0.05   -0.00 -0.00 -0.00   -0.00 -0.00  0.00   
      3   H                0.03  0.03  0.00    0.00  0.00  0.00    0.07  0.06  0.00   
      4   C               -0.02 -0.01 -0.01   -0.00 -0.00 -0.00   -0.00 -0.00  0.00   
      5   H                0.05  0.02  0.17    0.00  0.00  0.00   -0.01 -0.01 -0.04   
      6   H                0.13  0.10 -0.00    0.00  0.00 -0.00    0.02  0.02 -0.00   
      7   C               -0.01 -0.00 -0.02    0.00  0.00  0.00    0.01 -0.02  0.02   
      8   H                0.00 -0.02  0.01    0.00 -0.00  0.00   -0.04  0.22 -0.08   
      9   H                0.06  0.02  0.18   -0.00 -0.00 -0.00   -0.04 -0.01 -0.13   
     10   C                0.03 -0.03 -0.08   -0.00  0.00  0.00    0.04 -0.07  0.04   
     11   H               -0.51  0.35  0.36    0.01 -0.01 -0.01   -0.24  0.16  0.19   
     12   H                0.01 -0.01 -0.01    0.00 -0.00  0.00   -0.09  0.74 -0.33   
     13   H                0.20  0.06  0.58   -0.00 -0.00 -0.01   -0.10 -0.05 -0.32   
     14   O                0.00  0.00  0.00    0.00  0.00 -0.00    0.00  0.00 -0.00   
     15   H                0.00 -0.00  0.00   -0.00 -0.00  0.00   -0.00 -0.00  0.00   
     16   C               -0.00 -0.00  0.00   -0.01 -0.06  0.07   -0.00 -0.00  0.00   
     17   H               -0.00  0.01 -0.00   -0.25  0.58 -0.28   -0.00  0.00 -0.00   
     18   H                0.01  0.00 -0.01    0.40  0.18 -0.56    0.00  0.00 -0.01   
     19   H                0.00 -0.00  0.00   -0.00 -0.01  0.02   -0.00  0.00  0.00   
     20   O                0.00 -0.00  0.00    0.00  0.00 -0.00    0.00  0.00  0.00   
     21   H               -0.00  0.00 -0.00   -0.00  0.00 -0.00   -0.00 -0.00 -0.00   

  Vibration                       61                  62                  63          
  Freq [cm^-1]                3322.5661           4050.9575           4114.9416       
  Irrep                           A                   A                   A           
  Reduced mass [u]              1.1016              1.0670              1.0670        
  Force const [mDyne/A]         7.1651             10.3165             10.6444        
  Turning point v=0 [a0]        0.1814              0.1669              0.1656        
  RMS dev v=0 [a0 u^1/2]        0.1346              0.1219              0.1210        
  Char temp [K]               4780.4255           5828.4170           5920.4757       
  ----------------------------------------------------------------------------------
      1   C               -0.00 -0.00 -0.00   -0.00 -0.00  0.00    0.00  0.00 -0.00   
      2   H                0.00  0.00  0.00   -0.00  0.00  0.01    0.00 -0.00 -0.00   
      3   H                0.00  0.00  0.00   -0.01 -0.00  0.00    0.00 -0.00 -0.00   
      4   C               -0.00 -0.00 -0.00   -0.00  0.00  0.00    0.00 -0.00  0.00   
      5   H                0.00  0.00  0.00   -0.00 -0.00 -0.00   -0.00  0.00 -0.00   
      6   H                0.00  0.00 -0.00    0.00  0.00  0.00   -0.00 -0.00 -0.00   
      7   C               -0.00  0.00 -0.00   -0.00  0.00 -0.00    0.00 -0.00 -0.00   
      8   H                0.00 -0.00  0.00   -0.00  0.00  0.00   -0.00  0.00 -0.00   
      9   H                0.00  0.00  0.00    0.00 -0.00  0.00   -0.00 -0.00 -0.00   
     10   C               -0.00  0.00 -0.00    0.00 -0.00  0.00    0.00 -0.00  0.00   
     11   H                0.00 -0.00 -0.00   -0.00  0.00  0.00   -0.00  0.00  0.00   
     12   H               -0.00 -0.00  0.00    0.00  0.00 -0.00    0.00  0.00 -0.00   
     13   H                0.00  0.00  0.00   -0.00 -0.00 -0.00   -0.00  0.00 -0.00   
     14   O                0.00 -0.00  0.00    0.02 -0.06  0.02   -0.00  0.00 -0.00   
     15   H               -0.00  0.00 -0.00   -0.34  0.89 -0.28    0.02 -0.05  0.02   
     16   C                0.02 -0.07 -0.06    0.00  0.00  0.00    0.00 -0.00 -0.00   
     17   H               -0.07  0.17 -0.10   -0.00  0.00 -0.00    0.00  0.00  0.00   
     18   H               -0.12 -0.07  0.17   -0.00 -0.00  0.00    0.00  0.00  0.00   
     19   H               -0.00  0.70  0.64   -0.00 -0.00 -0.00    0.00  0.01  0.01   
     20   O               -0.00  0.00  0.00   -0.00 -0.00 -0.00   -0.01 -0.05 -0.04   
     21   H                0.01 -0.01 -0.01    0.00  0.04  0.04    0.07  0.72  0.69   

  ==> Thermochemistry Components <==

  Entropy, S
    Electronic S            0.000 [cal/(mol K)]        0.000 [J/(mol K)]       0.00000000 [mEh/K] (multiplicity = 1)
    Translational S        39.895 [cal/(mol K)]      166.919 [J/(mol K)]       0.06357599 [mEh/K] (mol. weight = 106.0994 [u], P = 101325.00 [Pa])
    Rotational S           29.282 [cal/(mol K)]      122.516 [J/(mol K)]       0.04666388 [mEh/K] (symmetry no. = 1)
    Vibrational S          44.545 [cal/(mol K)]      186.375 [J/(mol K)]       0.07098660 [mEh/K]
  Total S                 113.721 [cal/(mol K)]      475.810 [J/(mol K)]       0.18122646 [mEh/K]
  Correction S              0.000 [cal/(mol K)]        0.000 [J/(mol K)]       0.00000000 [mEh/K]

  Constant volume heat capacity, Cv
    Electronic Cv           0.000 [cal/(mol K)]        0.000 [J/(mol K)]       0.00000000 [mEh/K]
    Translational Cv        2.981 [cal/(mol K)]       12.472 [J/(mol K)]       0.00475022 [mEh/K]
    Rotational Cv           2.981 [cal/(mol K)]       12.472 [J/(mol K)]       0.00475022 [mEh/K]
    Vibrational Cv         28.974 [cal/(mol K)]      121.227 [J/(mol K)]       0.04617302 [mEh/K]
  Total Cv                 34.936 [cal/(mol K)]      146.171 [J/(mol K)]       0.05567346 [mEh/K]
  Correction Cv             0.000 [cal/(mol K)]        0.000 [J/(mol K)]       0.00000000 [mEh/K]

  Constant pressure heat capacity, Cp
    Electronic Cp           0.000 [cal/(mol K)]        0.000 [J/(mol K)]       0.00000000 [mEh/K]
    Translational Cp        4.968 [cal/(mol K)]       20.786 [J/(mol K)]       0.00791704 [mEh/K]
    Rotational Cp           2.981 [cal/(mol K)]       12.472 [J/(mol K)]       0.00475022 [mEh/K]
    Vibrational Cp         28.974 [cal/(mol K)]      121.227 [J/(mol K)]       0.04617302 [mEh/K]
  Total Cp                 36.923 [cal/(mol K)]      154.485 [J/(mol K)]       0.05884028 [mEh/K]
  Correction Cp             0.000 [cal/(mol K)]        0.000 [J/(mol K)]       0.00000000 [mEh/K]

  ==> Thermochemistry Energy Analysis <==

  Raw electronic energy, E0
  Total E0, Electronic energy at well bottom at 0 [K]                 -347.18735383 [Eh]

  Zero-point energy, ZPE_vib = Sum_i nu_i / 2
    Electronic ZPE          0.000 [kcal/mol]        0.000 [kJ/mol]       0.00000000 [Eh]
    Translational ZPE       0.000 [kcal/mol]        0.000 [kJ/mol]       0.00000000 [Eh]
    Rotational ZPE          0.000 [kcal/mol]        0.000 [kJ/mol]       0.00000000 [Eh]
    Vibrational ZPE       128.327 [kcal/mol]      536.921 [kJ/mol]       0.20450233 [Eh]       44883.067 [cm^-1]
  Correction ZPE          128.327 [kcal/mol]      536.921 [kJ/mol]       0.20450233 [Eh]       44883.067 [cm^-1]
  Total ZPE, Electronic energy at 0 [K]                               -346.98285150 [Eh]

  Thermal Energy, E (includes ZPE)
    Electronic E            0.000 [kcal/mol]        0.000 [kJ/mol]       0.00000000 [Eh]
    Translational E         0.889 [kcal/mol]        3.718 [kJ/mol]       0.00141628 [Eh]
    Rotational E            0.889 [kcal/mol]        3.718 [kJ/mol]       0.00141628 [Eh]
    Vibrational E         133.763 [kcal/mol]      559.663 [kJ/mol]       0.21316430 [Eh]
  Correction E            135.540 [kcal/mol]      567.100 [kJ/mol]       0.21599685 [Eh]
  Total E, Electronic energy at  298.15 [K]                           -346.97135698 [Eh]

  Enthalpy, H_trans = E_trans + k_B * T
    Electronic H            0.000 [kcal/mol]        0.000 [kJ/mol]       0.00000000 [Eh]
    Translational H         1.481 [kcal/mol]        6.197 [kJ/mol]       0.00236046 [Eh]
    Rotational H            0.889 [kcal/mol]        3.718 [kJ/mol]       0.00141628 [Eh]
    Vibrational H         133.763 [kcal/mol]      559.663 [kJ/mol]       0.21316430 [Eh]
  Correction H            136.133 [kcal/mol]      569.579 [kJ/mol]       0.21694104 [Eh]
  Total H, Enthalpy at  298.15 [K]                                    -346.97041279 [Eh]

  Gibbs free energy, G = H - T * S
    Electronic G            0.000 [kcal/mol]        0.000 [kJ/mol]       0.00000000 [Eh]
    Translational G       -10.413 [kcal/mol]      -43.569 [kJ/mol]      -0.01659472 [Eh]
    Rotational G           -7.842 [kcal/mol]      -32.810 [kJ/mol]      -0.01249656 [Eh]
    Vibrational G         120.482 [kcal/mol]      504.095 [kJ/mol]       0.19199964 [Eh]
  Correction G            102.227 [kcal/mol]      427.716 [kJ/mol]       0.16290837 [Eh]
  Total G, Free enthalpy at  298.15 [K]                               -347.02444546 [Eh]

    Psi4 stopped on: Thursday, 06 December 2018 04:29PM
    Psi4 wall time for execution: 0:07:53.99

*** Psi4 exiting successfully. Buy a developer a beer!
