
    -----------------------------------------------------------------------
          Psi4: An Open-Source Ab Initio Electronic Structure Package
                               Psi4 1.2.1 release

                         Git: Rev {HEAD} 406f4de 


    R. M. Parrish, L. A. Burns, D. G. A. Smith, A. C. Simmonett,
    A. E. DePrince III, E. G. Hohenstein, U. Bozkaya, A. Yu. Sokolov,
    R. Di Remigio, R. M. Richard, J. F. Gonthier, A. M. James,
    H. R. McAlexander, A. Kumar, M. Saitow, X. Wang, B. P. Pritchard,
    P. Verma, H. F. Schaefer III, K. Patkowski, R. A. King, E. F. Valeev,
    F. A. Evangelista, J. M. Turney, T. D. Crawford, and C. D. Sherrill,
    J. Chem. Theory Comput. 13(7) pp 3185--3197 (2017).
    (doi: 10.1021/acs.jctc.7b00174)


                         Additional Contributions by
    P. Kraus, H. Kruse, M. H. Lechner, M. C. Schieber, and R. A. Shaw

    -----------------------------------------------------------------------


    Psi4 started on: Friday, 05 October 2018 02:04PM

    Process ID: 236720
    Host:       wr70
    PSIDATADIR: /usr/local/hpc1/software_molmod/psi4/psi4conda/share/psi4
    Memory:     500.0 MiB
    Threads:    16
    
  ==> Input File <==

--------------------------------------------------------------------------
memory 100 Gb

molecule conf_01 {
0 1
 C          4.7127318838   1.2989224917  -0.2119501403
 H          5.1464689503   1.1463074316  -1.2005381822
 H          3.8685376608   1.9777334089  -0.3353190061
 C          4.2282508521  -0.0277882547   0.3477811885
 H          3.8181327993   0.1478530164   1.3389986391
 H          5.0885308346  -0.6792299036   0.4787671102
 C          3.1847644175  -0.7088012672  -0.5384873939
 H          3.6007584044  -0.8724085304  -1.5307345408
 H          2.3317098529  -0.0462312683  -0.6713019527
 C          2.7023657515  -2.0424531847   0.0312590216
 H          1.9632564337  -2.5038284041  -0.6166221571
 H          2.2487017181  -1.9087051176   1.0091428173
 H          3.5267879819  -2.7407899593   0.1436345108
 O          5.6576621453   1.8351471070   0.6686251761
 H          5.9717274807   2.6659350563   0.3290785566
 C          8.1984574795   4.1932323012  -0.5303612108
 H          8.6276585282   5.0404759004  -1.0560460417
 H          8.7035161193   4.0706005883   0.4225293653
 H          8.3536104852   3.3024848642  -1.1211146882
 O          6.8095267979   4.3421601386  -0.3668040537
 H          6.6288434230   5.1063835852   0.1624629821
}
set globals {
  reference rhf
  g_convergence gau_tight
  basis 6-31G(d)
}
optimize('scf')
--------------------------------------------------------------------------

  Memory set to  93.132 GiB by Python driver.
gradient() will perform analytic gradient computation.

*** tstart() called on wr70
*** at Fri Oct  5 14:04:46 2018

   => Loading Basis Set <=

    Name: 6-31G(D)
    Role: ORBITAL
    Keyword: BASIS
    atoms 1, 4, 7, 10, 16                     entry C          line   111 file /usr/local/hpc1/software_molmod/psi4/psi4conda/share/psi4/basis/6-31g_d_.gbs 
    atoms 2-3, 5-6, 8-9, 11-13, 15, 17-19, 21 entry H          line    44 file /usr/local/hpc1/software_molmod/psi4/psi4conda/share/psi4/basis/6-31g_d_.gbs 
    atoms 14, 20                              entry O          line   145 file /usr/local/hpc1/software_molmod/psi4/psi4conda/share/psi4/basis/6-31g_d_.gbs 


         ---------------------------------------------------------
                                   SCF
            by Justin Turney, Rob Parrish, Andy Simmonett
                             and Daniel Smith
                              RHF Reference
                       16 Threads,  95367 MiB Core
         ---------------------------------------------------------

  ==> Geometry <==

    Molecular point group: c1
    Full point group: C1

    Geometry (in Angstrom), charge = 0, multiplicity = 1:

       Center              X                  Y                   Z               Mass       
    ------------   -----------------  -----------------  -----------------  -----------------
         C           -0.434852475858    -0.078884876928    -0.130316531337    12.000000000000
         H           -0.001115409358    -0.231499937028    -1.118904573237     1.007825032070
         H           -1.279046698858     0.599926040272    -0.253685397137     1.007825032070
         C           -0.919333507558    -1.405595623328     0.429414797463    12.000000000000
         H           -1.329451560358    -1.229954352228     1.420632248063     1.007825032070
         H           -0.059053525058    -2.057037272228     0.560400719163     1.007825032070
         C           -1.962819942158    -2.086608635828    -0.456853784937    12.000000000000
         H           -1.546825955258    -2.250215899028    -1.449100931837     1.007825032070
         H           -2.815874506758    -1.424038636928    -0.589668343737     1.007825032070
         C           -2.445218608158    -3.420260553328     0.112892630563    12.000000000000
         H           -3.184327925958    -3.881635772728    -0.534988548137     1.007825032070
         H           -2.898882641558    -3.286512486228     1.090776426263     1.007825032070
         H           -1.620796377758    -4.118597327928     0.225268119763     1.007825032070
         O            0.510077785642     0.457339738372     0.750258785063    15.994914619560
         H            0.824143121042     1.288127687672     0.410712165563     1.007825032070
         C            3.050873119842     2.815424932572    -0.448727601837    12.000000000000
         H            3.480074168542     3.662668531772    -0.974412432737     1.007825032070
         H            3.555931759642     2.692793219672     0.504162974263     1.007825032070
         H            3.206026125542     1.924677495572    -1.039481079237     1.007825032070
         O            1.661942438242     2.964352769972    -0.285170444737    15.994914619560
         H            1.481259063342     3.728576216572     0.244096591063     1.007825032070

  Running in c1 symmetry.

  Rotational constants: A =      0.33249  B =      0.01842  C =      0.01829 [cm^-1]
  Rotational constants: A =   9967.88925  B =    552.07545  C =    548.20001 [MHz]
  Nuclear repulsion =  307.166217411621005

  Charge       = 0
  Multiplicity = 1
  Electrons    = 60
  Nalpha       = 30
  Nbeta        = 30

  ==> Algorithm <==

  SCF Algorithm Type is DF.
  DIIS enabled.
  MOM disabled.
  Fractional occupation disabled.
  Guess Type is SAD.
  Energy threshold   = 1.00e-08
  Density threshold  = 1.00e-08
  Integral threshold = 0.00e+00

  ==> Primary Basis <==

  Basis Set: 6-31G(D)
    Blend: 6-31G(D)
    Number of shells: 70
    Number of basis function: 133
    Number of Cartesian functions: 133
    Spherical Harmonics?: false
    Max angular momentum: 2

   => Loading Basis Set <=

    Name: (6-31G(D) AUX)
    Role: JKFIT
    Keyword: DF_BASIS_SCF
    atoms 1, 4, 7, 10, 16                     entry C          line   121 file /usr/local/hpc1/software_molmod/psi4/psi4conda/share/psi4/basis/cc-pvdz-jkfit.gbs 
    atoms 2-3, 5-6, 8-9, 11-13, 15, 17-19, 21 entry H          line    51 file /usr/local/hpc1/software_molmod/psi4/psi4conda/share/psi4/basis/cc-pvdz-jkfit.gbs 
    atoms 14, 20                              entry O          line   221 file /usr/local/hpc1/software_molmod/psi4/psi4conda/share/psi4/basis/cc-pvdz-jkfit.gbs 

  ==> Pre-Iterations <==

   -------------------------------------------------------
    Irrep   Nso     Nmo     Nalpha   Nbeta   Ndocc  Nsocc
   -------------------------------------------------------
     A        133     133       0       0       0       0
   -------------------------------------------------------
    Total     133     133      30      30      30       0
   -------------------------------------------------------

  ==> Integral Setup <==

  ==> DiskDFJK: Density-Fitted J/K Matrices <==

    J tasked:                  Yes
    K tasked:                  Yes
    wK tasked:                  No
    OpenMP threads:             16
    Integrals threads:          16
    Memory (MB):             71525
    Algorithm:                Core
    Integral Cache:           NONE
    Schwarz Cutoff:          1E-12
    Fitting Condition:       1E-12

   => Auxiliary Basis Set <=

  Basis Set: (6-31G(D) AUX)
    Blend: CC-PVDZ-JKFIT
    Number of shells: 294
    Number of basis function: 917
    Number of Cartesian functions: 917
    Spherical Harmonics?: false
    Max angular momentum: 3

  Minimum eigenvalue in the overlap matrix is 3.5464583000E-03.
  Using Symmetric Orthogonalization.

  SCF Guess: Superposition of Atomic Densities via on-the-fly atomic UHF.

  ==> Iterations <==

                           Total Energy        Delta E     RMS |[F,P]|

   @DF-RHF iter   0:  -349.68865256971645   -3.49689e+02   1.44109e-01 
   @DF-RHF iter   1:  -347.00312894099295    2.68552e+00   1.53922e-02 
   @DF-RHF iter   2:  -347.16522328384957   -1.62094e-01   5.56669e-03 DIIS
   @DF-RHF iter   3:  -347.18466526365739   -1.94420e-02   2.38226e-03 DIIS
   @DF-RHF iter   4:  -347.18875868687616   -4.09342e-03   4.84875e-04 DIIS
   @DF-RHF iter   5:  -347.18900008194407   -2.41395e-04   1.31245e-04 DIIS
   @DF-RHF iter   6:  -347.18902493367682   -2.48517e-05   4.23134e-05 DIIS
   @DF-RHF iter   7:  -347.18902707300128   -2.13932e-06   1.16303e-05 DIIS
   @DF-RHF iter   8:  -347.18902725614129   -1.83140e-07   4.48784e-06 DIIS
   @DF-RHF iter   9:  -347.18902727472084   -1.85796e-08   1.10387e-06 DIIS
   @DF-RHF iter  10:  -347.18902727628131   -1.56047e-09   2.28718e-07 DIIS
   @DF-RHF iter  11:  -347.18902727634003   -5.87193e-11   7.19433e-08 DIIS
   @DF-RHF iter  12:  -347.18902727634594   -5.91172e-12   1.97358e-08 DIIS
   @DF-RHF iter  13:  -347.18902727634634   -3.97904e-13   5.33638e-09 DIIS

  ==> Post-Iterations <==

    Orbital Energies [Eh]
    ---------------------

    Doubly Occupied:                                                      

       1A    -20.581716     2A    -20.522800     3A    -11.280889  
       4A    -11.249910     5A    -11.209668     6A    -11.203229  
       7A    -11.199174     8A     -1.383239     9A     -1.333907  
      10A     -1.059433    11A     -0.962233    12A     -0.943811  
      13A     -0.842390    14A     -0.784152    15A     -0.715905  
      16A     -0.675060    17A     -0.645848    18A     -0.636284  
      19A     -0.613014    20A     -0.590683    21A     -0.579512  
      22A     -0.548626    23A     -0.518804    24A     -0.510762  
      25A     -0.495606    26A     -0.468970    27A     -0.464182  
      28A     -0.460311    29A     -0.442666    30A     -0.411414  

    Virtual:                                                              

      31A      0.205047    32A      0.241879    33A      0.268100  
      34A      0.274412    35A      0.290559    36A      0.302713  
      37A      0.306393    38A      0.319469    39A      0.324442  
      40A      0.340222    41A      0.349247    42A      0.360793  
      43A      0.364761    44A      0.378373    45A      0.382206  
      46A      0.419223    47A      0.445444    48A      0.460017  
      49A      0.506684    50A      0.717039    51A      0.750762  
      52A      0.752528    53A      0.758435    54A      0.766341  
      55A      0.777797    56A      0.784151    57A      0.795332  
      58A      0.864898    59A      0.910237    60A      0.938361  
      61A      0.980945    62A      0.996093    63A      1.032443  
      64A      1.055740    65A      1.090699    66A      1.118372  
      67A      1.130334    68A      1.154231    69A      1.161039  
      70A      1.171512    71A      1.180847    72A      1.182557  
      73A      1.193921    74A      1.207366    75A      1.211280  
      76A      1.219029    77A      1.232084    78A      1.246105  
      79A      1.256771    80A      1.268047    81A      1.275426  
      82A      1.331447    83A      1.382803    84A      1.397785  
      85A      1.453603    86A      1.601253    87A      1.635378  
      88A      1.688118    89A      1.690988    90A      1.717174  
      91A      1.756689    92A      1.790480    93A      1.837732  
      94A      1.855173    95A      1.884983    96A      2.024796  
      97A      2.056745    98A      2.082074    99A      2.097417  
     100A      2.175883   101A      2.246620   102A      2.247602  
     103A      2.285850   104A      2.342410   105A      2.363360  
     106A      2.371107   107A      2.389420   108A      2.433461  
     109A      2.465349   110A      2.485212   111A      2.558845  
     112A      2.623599   113A      2.648950   114A      2.682466  
     115A      2.697488   116A      2.728805   117A      2.764264  
     118A      2.801794   119A      2.828259   120A      2.835014  
     121A      2.893600   122A      2.953328   123A      3.021856  
     124A      3.150020   125A      3.165398   126A      3.304728  
     127A      4.196605   128A      4.402818   129A      4.588495  
     130A      4.635704   131A      4.706994   132A      4.818770  
     133A      4.972143  

    Final Occupation by Irrep:
              A 
    DOCC [    30 ]

  Energy converged.

  @DF-RHF Final Energy:  -347.18902727634634

   => Energetics <=

    Nuclear Repulsion Energy =            307.1662174116210053
    One-Electron Energy =               -1082.0420903345661827
    Two-Electron Energy =                 427.6868456465988402
    Total Energy =                       -347.1890272763463372



Properties will be evaluated at   0.000000,   0.000000,   0.000000 [a0]

Properties computed using the SCF density matrix

  Nuclear Dipole Moment: [e a0]
     X:    -2.0407      Y:    -4.2797      Z:    -1.4079

  Electronic Dipole Moment: [e a0]
     X:     2.5665      Y:     5.2694      Z:     1.0892

  Dipole Moment: [e a0]
     X:     0.5258      Y:     0.9897      Z:    -0.3187     Total:     1.1652

  Dipole Moment: [D]
     X:     1.3364      Y:     2.5156      Z:    -0.8101     Total:     2.9615


*** tstop() called on wr70 at Fri Oct  5 14:04:48 2018
Module time:
	user time   =      24.83 seconds =       0.41 minutes
	system time =       1.05 seconds =       0.02 minutes
	total time  =          2 seconds =       0.03 minutes
Total time:
	user time   =      24.83 seconds =       0.41 minutes
	system time =       1.05 seconds =       0.02 minutes
	total time  =          2 seconds =       0.03 minutes

*** tstart() called on wr70
*** at Fri Oct  5 14:04:48 2018


         ------------------------------------------------------------
                                   SCF GRAD                          
                          Rob Parrish, Justin Turney,                
                       Andy Simmonett, and Alex Sokolov              
         ------------------------------------------------------------

  ==> Geometry <==

    Molecular point group: c1
    Full point group: C1

    Geometry (in Angstrom), charge = 0, multiplicity = 1:

       Center              X                  Y                   Z               Mass       
    ------------   -----------------  -----------------  -----------------  -----------------
         C           -0.434852475858    -0.078884876928    -0.130316531337    12.000000000000
         H           -0.001115409358    -0.231499937028    -1.118904573237     1.007825032070
         H           -1.279046698858     0.599926040272    -0.253685397137     1.007825032070
         C           -0.919333507558    -1.405595623328     0.429414797463    12.000000000000
         H           -1.329451560358    -1.229954352228     1.420632248063     1.007825032070
         H           -0.059053525058    -2.057037272228     0.560400719163     1.007825032070
         C           -1.962819942158    -2.086608635828    -0.456853784937    12.000000000000
         H           -1.546825955258    -2.250215899028    -1.449100931837     1.007825032070
         H           -2.815874506758    -1.424038636928    -0.589668343737     1.007825032070
         C           -2.445218608158    -3.420260553328     0.112892630563    12.000000000000
         H           -3.184327925958    -3.881635772728    -0.534988548137     1.007825032070
         H           -2.898882641558    -3.286512486228     1.090776426263     1.007825032070
         H           -1.620796377758    -4.118597327928     0.225268119763     1.007825032070
         O            0.510077785642     0.457339738372     0.750258785063    15.994914619560
         H            0.824143121042     1.288127687672     0.410712165563     1.007825032070
         C            3.050873119842     2.815424932572    -0.448727601837    12.000000000000
         H            3.480074168542     3.662668531772    -0.974412432737     1.007825032070
         H            3.555931759642     2.692793219672     0.504162974263     1.007825032070
         H            3.206026125542     1.924677495572    -1.039481079237     1.007825032070
         O            1.661942438242     2.964352769972    -0.285170444737    15.994914619560
         H            1.481259063342     3.728576216572     0.244096591063     1.007825032070

  Nuclear repulsion =  307.166217411621005

  ==> Basis Set <==

  Basis Set: 6-31G(D)
    Blend: 6-31G(D)
    Number of shells: 70
    Number of basis function: 133
    Number of Cartesian functions: 133
    Spherical Harmonics?: false
    Max angular momentum: 2

  ==> DFJKGrad: Density-Fitted SCF Gradients <==

    Gradient:                    1
    J tasked:                  Yes
    K tasked:                  Yes
    wK tasked:                  No
    OpenMP threads:             16
    Integrals threads:          16
    Memory (MB):             71525
    Schwarz Cutoff:          0E+00
    Fitting Condition:       1E-12

   => Auxiliary Basis Set <=

  Basis Set: (6-31G(D) AUX)
    Blend: CC-PVDZ-JKFIT
    Number of shells: 294
    Number of basis function: 917
    Number of Cartesian functions: 917
    Spherical Harmonics?: false
    Max angular momentum: 3


  -Total Gradient:
     Atom            X                  Y                   Z
    ------   -----------------  -----------------  -----------------
       1        0.000054053900     0.000025687589     0.000054317650
       2        0.000004609680     0.000002096096    -0.000016791812
       3       -0.000010845007     0.000012604636    -0.000006290098
       4       -0.000007501049     0.000011880591    -0.000022282268
       5        0.000002074872    -0.000002583837     0.000012807788
       6        0.000007368205    -0.000005960731     0.000008977118
       7       -0.000002208985    -0.000019985881     0.000015688000
       8        0.000000635159     0.000005656495    -0.000009208308
       9       -0.000002807547     0.000007855282    -0.000006930144
      10       -0.000002995884     0.000004489416    -0.000008631745
      11       -0.000003864497    -0.000005018720    -0.000000905649
      12       -0.000001145750    -0.000002619913     0.000006526641
      13        0.000002969464    -0.000005340701     0.000003764169
      14       -0.000034162436    -0.000035678255    -0.000017141013
      15       -0.000007436316     0.000003093909    -0.000012350642
      16       -0.000062685225     0.000008794633     0.000009051285
      17        0.000002282610     0.000010602871    -0.000006056129
      18        0.000004022363    -0.000001551556     0.000013087436
      19       -0.000001512999    -0.000006272477    -0.000004054078
      20        0.000048768684    -0.000018486873    -0.000019968565
      21        0.000010380755     0.000010737421     0.000006390364


*** tstop() called on wr70 at Fri Oct  5 14:04:50 2018
Module time:
	user time   =      23.75 seconds =       0.40 minutes
	system time =       0.69 seconds =       0.01 minutes
	total time  =          2 seconds =       0.03 minutes
Total time:
	user time   =      48.62 seconds =       0.81 minutes
	system time =       1.74 seconds =       0.03 minutes
	total time  =          4 seconds =       0.07 minutes

			-----------------------------------------
			 OPTKING 2.0: for geometry optimizations 
			  - R.A. King,  Bethel University        
			-----------------------------------------

	Internal coordinates to be generated automatically.
	Detected frag 1 with atoms:  1 2 3 4 5 6 7 8 9 10 11 12 13 14 15
	Detected frag 2 with atoms:  16 17 18 19 20 21
	Unifying fragments since fragment_mode == SINGLE
	Increasing scaling to  2.200 to connect fragments.
	Connecting fragments 1 and 2
	---Fragment 1 Bond Connectivity---
	 1 : 2 3 4 14
	 2 : 1
	 3 : 1
	 4 : 1 5 6 7
	 5 : 4
	 6 : 4
	 7 : 4 8 9 10
	 8 : 7
	 9 : 7
	 10 : 7 11 12 13
	 11 : 10
	 12 : 10
	 13 : 10
	 14 : 1 15
	 15 : 14 20
	 16 : 17 18 19 20
	 17 : 16
	 18 : 16
	 19 : 16
	 20 : 15 16 21
	 21 : 20

	---Fragment 1 Geometry and Gradient---
	 C          -0.8217520876       -0.1490708134       -0.2462625548
	 H          -0.0021078182       -0.4374714808       -2.1144232123
	 H          -2.4170479720        1.1336959161       -0.4793959245
	 C          -1.7372885541       -2.6561907817        0.8114763646
	 H          -2.5122993560       -2.3242768817        2.6846058844
	 H          -0.1115949895       -3.8872370896        1.0590038839
	 C          -3.7091921388       -3.9431188682       -0.8633285363
	 H          -2.9230774307       -4.2522917890       -2.7384039001
	 H          -5.3212316423       -2.6910430264       -1.1143116789
	 C          -4.6207935045       -6.4633557489        0.2133361542
	 H          -6.0175076974       -7.3352285581       -1.0109818402
	 H          -5.4780942839       -6.2106085313        2.0612687178
	 H          -3.0628612711       -7.7830210014        0.4256950528
	 O           0.9639073213        0.8642468552        1.4177836326
	 H           1.5574047931        2.4342085539        0.7761335124
	 C           5.7653146627        5.3203820703       -0.8479722757
	 H           6.5763871007        6.9214404406       -1.8413726384
	 H           6.7197371730        5.0886417177        0.9527299477
	 H           6.0585113522        3.6371133608       -1.9643345601
	 O           3.1406160569        5.6018148965       -0.5388940417
	 H           2.7991739616        7.0459879149        0.4612757071
	             0.0000540539        0.0000256876        0.0000543176
	             0.0000046097        0.0000020961       -0.0000167918
	            -0.0000108450        0.0000126046       -0.0000062901
	            -0.0000075010        0.0000118806       -0.0000222823
	             0.0000020749       -0.0000025838        0.0000128078
	             0.0000073682       -0.0000059607        0.0000089771
	            -0.0000022090       -0.0000199859        0.0000156880
	             0.0000006352        0.0000056565       -0.0000092083
	            -0.0000028075        0.0000078553       -0.0000069301
	            -0.0000029959        0.0000044894       -0.0000086317
	            -0.0000038645       -0.0000050187       -0.0000009056
	            -0.0000011458       -0.0000026199        0.0000065266
	             0.0000029695       -0.0000053407        0.0000037642
	            -0.0000341624       -0.0000356783       -0.0000171410
	            -0.0000074363        0.0000030939       -0.0000123506
	            -0.0000626852        0.0000087946        0.0000090513
	             0.0000022826        0.0000106029       -0.0000060561
	             0.0000040224       -0.0000015516        0.0000130874
	            -0.0000015130       -0.0000062725       -0.0000040541
	             0.0000487687       -0.0000184869       -0.0000199686
	             0.0000103808        0.0000107374        0.0000063904

	Previous optimization step data not found.  Starting new optimization.

	---Fragment 1 Intrafragment Coordinates---
	 - Coordinate -           - BOHR/RAD -       - ANG/DEG -
	 H(15,20)         =         3.777510	       1.998972
	 R(1,2)           =         2.060344	       1.090287
	 R(1,3)           =         2.060294	       1.090261
	 R(1,4)           =         2.871005	       1.519270
	 R(1,14)          =         2.642809	       1.398515
	 R(4,5)           =         2.054123	       1.086995
	 R(4,6)           =         2.054172	       1.087021
	 R(4,7)           =         2.889560	       1.529089
	 R(7,8)           =         2.056568	       1.088289
	 R(7,9)           =         2.056540	       1.088274
	 R(7,10)          =         2.888221	       1.528380
	 R(10,11)         =         2.051811	       1.085771
	 R(10,12)         =         2.052730	       1.086258
	 R(10,13)         =         2.052746	       1.086266
	 R(14,15)         =         1.796868	       0.950861
	 R(16,17)         =         2.051358	       1.085532
	 R(16,18)         =         2.051135	       1.085414
	 R(16,19)         =         2.040986	       1.080043
	 R(16,20)         =         2.657777	       1.406435
	 R(20,21)         =         1.789569	       0.946999
	 B(1,4,5)         =         1.891432	     108.371094
	 B(1,4,6)         =         1.891627	     108.382247
	 B(1,4,7)         =         1.974691	     113.141457
	 B(1,14,15)       =         1.910632	     109.471124
	 B(2,1,3)         =         1.867725	     107.012743
	 B(2,1,4)         =         1.916311	     109.796537
	 B(2,1,14)        =         1.934562	     110.842219
	 B(3,1,4)         =         1.916088	     109.783729
	 B(3,1,14)        =         1.934455	     110.836081
	 B(4,1,14)        =         1.894748	     108.561036
	 B(4,7,8)         =         1.911931	     109.545555
	 B(4,7,9)         =         1.911878	     109.542519
	 B(4,7,10)        =         1.969208	     112.827307
	 B(5,4,6)         =         1.860375	     106.591662
	 B(5,4,7)         =         1.920932	     110.061278
	 B(6,4,7)         =         1.920918	     110.060511
	 B(7,10,11)       =         1.942504	     111.297261
	 B(7,10,12)       =         1.939027	     111.098043
	 B(7,10,13)       =         1.939052	     111.099507
	 B(8,7,9)         =         1.854469	     106.253254
	 B(8,7,10)        =         1.906408	     109.229137
	 B(9,7,10)        =         1.906404	     109.228930
	 B(11,10,12)      =         1.880938	     107.769781
	 B(11,10,13)      =         1.880931	     107.769415
	 B(12,10,13)      =         1.878628	     107.637483
	 B(14,15,20)      =         3.045603	     174.500210
	 B(15,20,16)      =         1.945062	     111.443821
	 B(15,20,21)      =         1.984687	     113.714182
	 B(16,20,21)      =         1.916510	     109.807941
	 B(17,16,18)      =         1.906403	     109.228825
	 B(17,16,19)      =         1.898654	     108.784869
	 B(17,16,20)      =         1.943497	     111.354198
	 B(18,16,19)      =         1.896701	     108.672942
	 B(18,16,20)      =         1.949153	     111.678213
	 B(19,16,20)      =         1.867957	     107.026042
	 D(1,4,7,8)       =         1.013920	      58.093336
	 D(1,4,7,9)       =        -1.013774	     -58.084972
	 D(1,4,7,10)      =        -3.141498	    -179.994597
	 D(1,14,15,20)    =        -2.207294	    -126.468633
	 D(2,1,4,5)       =         3.123390	     178.957050
	 D(2,1,4,6)       =         1.110955	      63.653046
	 D(2,1,4,7)       =        -1.024481	     -58.698457
	 D(2,1,14,15)     =         1.032824	      59.176450
	 D(3,1,4,5)       =        -1.111068	     -63.659524
	 D(3,1,4,6)       =        -3.123503	    -178.963529
	 D(3,1,4,7)       =         1.024246	      58.684968
	 D(3,1,14,15)     =        -1.038478	     -59.500407
	 D(4,1,14,15)     =         3.138937	     179.847819
	 D(4,7,10,11)     =         3.141568	     179.998601
	 D(4,7,10,12)     =         1.045434	      59.898951
	 D(4,7,10,13)     =        -1.045474	     -59.901226
	 D(5,4,1,14)      =         1.006027	      57.641081
	 D(5,4,7,8)       =         3.132696	     179.490241
	 D(5,4,7,9)       =         1.105002	      63.311933
	 D(5,4,7,10)      =        -1.022723	     -58.597692
	 D(6,4,1,14)      =        -1.006408	     -57.662923
	 D(6,4,7,8)       =        -1.105097	     -63.317370
	 D(6,4,7,9)       =        -3.132791	    -179.495678
	 D(6,4,7,10)      =         1.022670	      58.594697
	 D(7,4,1,14)      =         3.141341	     179.985574
	 D(8,7,10,11)     =        -1.010740	     -57.911143
	 D(8,7,10,12)     =        -3.106874	    -178.010793
	 D(8,7,10,13)     =         1.085403	      62.189031
	 D(9,7,10,11)     =         1.010762	      57.912374
	 D(9,7,10,12)     =        -1.085373	     -62.187276
	 D(9,7,10,13)     =         3.106905	     178.012548
	 D(14,15,20,16)   =         0.105405	       6.039256
	 D(14,15,20,21)   =        -2.072117	    -118.723537
	 D(15,20,16,17)   =         2.980431	     170.766141
	 D(15,20,16,18)   =        -1.166328	     -66.825653
	 D(15,20,16,19)   =         0.907466	      51.993973
	 D(17,16,20,21)   =        -1.087546	     -62.311823
	 D(18,16,20,21)   =         1.048880	      60.096382
	 D(19,16,20,21)   =         3.122673	     178.916008

	Current energy   :      -347.1890272763

	Generating empirical Hessian (Schlegel '84) for each fragment.
	Taking RFO optimization step.
	Going to follow RFO solution 1.
	Using RFO vector 1.
	Norm of target step-size    0.00054
	Projected energy change by RFO approximation:        -0.0000000286

	Back-transformation to cartesian coordinates...
	Successfully converged to displaced geometry.

	--- Internal Coordinate Step in ANG or DEG, aJ/ANG or AJ/DEG ---
	 ---------------------------------------------------------------------------
	   Coordinate                Previous        Force       Change         New 
	   ----------                --------       ------       ------       ------
	    1 H(15,20)        =      1.998972    -0.000035    -0.000075     1.998897
	    2 R(1,2)          =      1.090287    -0.000138    -0.000026     1.090261
	    3 R(1,3)          =      1.090261    -0.000140    -0.000026     1.090235
	    4 R(1,4)          =      1.519270    -0.000103    -0.000022     1.519249
	    5 R(1,14)         =      1.398515     0.000476     0.000067     1.398581
	    6 R(4,5)          =      1.086995    -0.000086    -0.000016     1.086979
	    7 R(4,6)          =      1.087021    -0.000086    -0.000016     1.087005
	    8 R(4,7)          =      1.529089    -0.000106    -0.000023     1.529066
	    9 R(7,8)          =      1.088289    -0.000064    -0.000012     1.088277
	   10 R(7,9)          =      1.088274    -0.000064    -0.000012     1.088262
	   11 R(7,10)         =      1.528380    -0.000076    -0.000017     1.528364
	   12 R(10,11)        =      1.085771    -0.000044    -0.000008     1.085764
	   13 R(10,12)        =      1.086258    -0.000050    -0.000009     1.086249
	   14 R(10,13)        =      1.086266    -0.000050    -0.000009     1.086257
	   15 R(14,15)        =      0.950861    -0.000074    -0.000008     0.950853
	   16 R(16,17)        =      1.085532    -0.000100    -0.000018     1.085514
	   17 R(16,18)        =      1.085414    -0.000112    -0.000020     1.085394
	   18 R(16,19)        =      1.080043    -0.000059    -0.000011     1.080033
	   19 R(16,20)        =      1.406435     0.000493     0.000071     1.406506
	   20 R(20,21)        =      0.946999    -0.000084    -0.000009     0.946990
	   21 B(1,4,5)        =    108.371094     0.000000     0.000008   108.371102
	   22 B(1,4,6)        =    108.382247     0.000000     0.000193   108.382440
	   23 B(1,4,7)        =    113.141457    -0.000001    -0.004585   113.136872
	   24 B(1,14,15)      =    109.471124     0.000002     0.008812   109.479936
	   25 B(2,1,3)        =    107.012743     0.000000     0.002808   107.015551
	   26 B(2,1,4)        =    109.796537    -0.000000    -0.001408   109.795129
	   27 B(2,1,14)       =    110.842219     0.000000     0.000208   110.842427
	   28 B(3,1,4)        =    109.783729    -0.000000    -0.001707   109.782022
	   29 B(3,1,14)       =    110.836081     0.000000     0.000314   110.836395
	   30 B(4,1,14)       =    108.561036     0.000000    -0.000246   108.560790
	   31 B(4,7,8)        =    109.545555     0.000000     0.001238   109.546793
	   32 B(4,7,9)        =    109.542519     0.000000     0.001220   109.543739
	   33 B(4,7,10)       =    112.827307    -0.000000    -0.002707   112.824600
	   34 B(5,4,6)        =    106.591662     0.000000     0.005533   106.597195
	   35 B(5,4,7)        =    110.061278     0.000000    -0.000339   110.060939
	   36 B(6,4,7)        =    110.060511     0.000000    -0.000191   110.060320
	   37 B(7,10,11)      =    111.297261    -0.000000    -0.001999   111.295262
	   38 B(7,10,12)      =    111.098043    -0.000000    -0.000695   111.097348
	   39 B(7,10,13)      =    111.099507    -0.000000    -0.000714   111.098792
	   40 B(8,7,9)        =    106.253254     0.000000     0.004410   106.257664
	   41 B(8,7,10)       =    109.229137    -0.000000    -0.001885   109.227252
	   42 B(9,7,10)       =    109.228930    -0.000000    -0.001858   109.227072
	   43 B(11,10,12)     =    107.769781     0.000000     0.000591   107.770372
	   44 B(11,10,13)     =    107.769415     0.000000     0.000598   107.770013
	   45 B(12,10,13)     =    107.637483     0.000000     0.002432   107.639915
	   46 B(14,15,20)     =    174.500210     0.000000     0.000543   174.500752
	   47 B(15,20,16)     =    111.443821    -0.000000     0.001249   111.445069
	   48 B(15,20,21)     =    113.714182    -0.000000    -0.000642   113.713541
	   49 B(16,20,21)     =    109.807941     0.000001     0.007548   109.815489
	   50 B(17,16,18)     =    109.228825    -0.000000    -0.001065   109.227759
	   51 B(17,16,19)     =    108.784869    -0.000000    -0.000933   108.783937
	   52 B(17,16,20)     =    111.354198     0.000000     0.001004   111.355202
	   53 B(18,16,19)     =    108.672942    -0.000000    -0.000892   108.672050
	   54 B(18,16,20)     =    111.678213     0.000000     0.000880   111.679093
	   55 B(19,16,20)     =    107.026042     0.000000     0.000951   107.026993
	   56 D(1,4,7,8)      =     58.093336     0.000000     0.003093    58.096429
	   57 D(1,4,7,9)      =    -58.084972    -0.000000    -0.003620   -58.088592
	   58 D(1,4,7,10)     =   -179.994597     0.000000    -0.000275  -179.994872
	   59 D(1,14,15,20)   =   -126.468633    -0.000000    -0.007068  -126.475702
	   60 D(2,1,4,5)      =    178.957050     0.000000     0.003116   178.960166
	   61 D(2,1,4,6)      =     63.653046    -0.000000    -0.003502    63.649544
	   62 D(2,1,4,7)      =    -58.698457    -0.000000    -0.000352   -58.698810
	   63 D(2,1,14,15)    =     59.176450     0.000000     0.003639    59.180089
	   64 D(3,1,4,5)      =    -63.659524     0.000000     0.004689   -63.654835
	   65 D(3,1,4,6)      =   -178.963529    -0.000000    -0.001929  -178.965458
	   66 D(3,1,4,7)      =     58.684968     0.000000     0.001220    58.686189
	   67 D(3,1,14,15)    =    -59.500407    -0.000000    -0.000201   -59.500608
	   68 D(4,1,14,15)    =    179.847819     0.000000     0.001871   179.849690
	   69 D(4,7,10,11)    =    179.998601    -0.000000    -0.000113   179.998488
	   70 D(4,7,10,12)    =     59.898951     0.000000     0.000951    59.899901
	   71 D(4,7,10,13)    =    -59.901226    -0.000000    -0.001180   -59.902405
	   72 D(5,4,1,14)     =     57.641081     0.000000     0.003876    57.644957
	   73 D(5,4,7,8)      =    179.490241     0.000000    -0.000298   179.489942
	   74 D(5,4,7,9)      =     63.311933    -0.000000    -0.007012    63.304921
	   75 D(5,4,7,10)     =    -58.597692    -0.000000    -0.003667   -58.601359
	   76 D(6,4,1,14)     =    -57.662923    -0.000000    -0.002742   -57.665665
	   77 D(6,4,7,8)      =    -63.317370     0.000000     0.006141   -63.311230
	   78 D(6,4,7,9)      =   -179.495678    -0.000000    -0.000573  -179.496251
	   79 D(6,4,7,10)     =     58.594697     0.000000     0.002772    58.597469
	   80 D(7,4,1,14)     =    179.985574    -0.000000     0.000408   179.985981
	   81 D(8,7,10,11)    =    -57.911143    -0.000000    -0.001708   -57.912851
	   82 D(8,7,10,12)    =   -178.010793     0.000000    -0.000645  -178.011438
	   83 D(8,7,10,13)    =     62.189031    -0.000000    -0.002775    62.186256
	   84 D(9,7,10,11)    =     57.912374     0.000000     0.001485    57.913859
	   85 D(9,7,10,12)    =    -62.187276     0.000000     0.002548   -62.184728
	   86 D(9,7,10,13)    =    178.012548    -0.000000     0.000418   178.012966
	   87 D(14,15,20,16)  =      6.039256     0.000000    -0.000974     6.038282
	   88 D(14,15,20,21)  =   -118.723537    -0.000000    -0.011624  -118.735161
	   89 D(15,20,16,17)  =    170.766141    -0.000000    -0.003801   170.762341
	   90 D(15,20,16,18)  =    -66.825653    -0.000000    -0.003826   -66.829479
	   91 D(15,20,16,19)  =     51.993973    -0.000000    -0.003820    51.990153
	   92 D(17,16,20,21)  =    -62.311823     0.000000     0.002044   -62.309780
	   93 D(18,16,20,21)  =     60.096382     0.000000     0.002018    60.098400
	   94 D(19,16,20,21)  =    178.916008     0.000000     0.002024   178.918032
	 ---------------------------------------------------------------------------
	Successfully symmetrized geometry.

  ==> Convergence Check <==

  Measures of convergence in internal coordinates in au.
  Criteria marked as inactive (o), active & met (*), and active & unmet ( ).
  --------------------------------------------------------------------------------------------- ~
   Step     Total Energy     Delta E     MAX Force     RMS Force      MAX Disp      RMS Disp    ~
  --------------------------------------------------------------------------------------------- ~
    Convergence Criteria             o    1.50e-05 *    1.00e-05 *    6.00e-05 *    4.00e-05 *  ~
  --------------------------------------------------------------------------------------------- ~
      1    -347.18902728   -3.47e+02 o    5.98e-05      1.05e-05      2.03e-04      5.61e-05    ~
  ---------------------------------------------------------------------------------------------

	Writing optimization data to binary file.
	Structure for next step:
	Cartesian Geometry (in Angstrom)
	    C    -0.4349450602  -0.0789562186  -0.1304533639
	    H    -0.0013199032  -0.2316216699  -1.1190545847
	    H    -1.2791645979   0.5997999026  -0.2537224679
	    C    -0.9193298891  -1.4056381820   0.4293706091
	    H    -1.3293964026  -1.2299622127   1.4205859396
	    H    -0.0590430294  -2.0570687732   0.5602353379
	    C    -1.9628732622  -2.0866038523  -0.4568273445
	    H    -1.5469563676  -2.2502546550  -1.4490867181
	    H    -2.8159545906  -1.4240649664  -0.5895282066
	    C    -2.4452016920  -3.4202400252   0.1129708473
	    H    -3.1843606819  -3.8815945321  -0.5348550886
	    H    -2.8987844652  -3.2864723492   1.0908795973
	    H    -1.6207645169  -4.1185603082   0.2252509542
	    O     0.5101186051   0.4573382295   0.7500422243
	    H     0.8241953901   1.2881420237   0.4105680873
	    C     3.0509922284   2.8154921509  -0.4486270103
	    H     3.4801901688   3.6627310755  -0.9742844591
	    H     3.5560102499   2.6928936965   0.5042662905
	    H     3.2062375976   1.9247592311  -1.0393588282
	    O     1.6619751779   2.9643601275  -0.2851383296
	    H     1.4811034881   3.7285665663   0.2440723025
			--------------------------
			 OPTKING Finished Execution 
			--------------------------

    Structure for next step:
    Molecular point group: c1
    Full point group: C1

    Geometry (in Angstrom), charge = 0, multiplicity = 1:

    C           -0.434954802127    -0.078954830761    -0.130429820083
    H           -0.001329645097    -0.231620281967    -1.119031040899
    H           -1.279174339854     0.599801290514    -0.253698924007
    C           -0.919339631021    -1.405636794117     0.429394152983
    H           -1.329406144564    -1.229960824825     1.420609483462
    H           -0.059052771329    -2.057067385351     0.560258881717
    C           -1.962883004104    -2.086602464397    -0.456803800649
    H           -1.546966109575    -2.250253267080    -1.449063174261
    H           -2.815964332557    -1.424063578481    -0.589504662712
    C           -2.445211433972    -3.420238637297     0.112994391128
    H           -3.184370423820    -3.881593144231    -0.534831544783
    H           -2.898794207159    -3.286470961331     1.090903141178
    H           -1.620774258844    -4.118558920323     0.225274498009
    O            0.510108863199     0.457339617364     0.750065768108
    H            0.824185648176     1.288143411545     0.410591631150
    C            3.050982486500     2.815493538748    -0.448603466426
    H            3.480180426825     3.662732463379    -0.974260915282
    H            3.556000507969     2.692895084419     0.504289834331
    H            3.206227855632     1.924760619007    -1.039335284380
    O            1.661965435939     2.964361515352    -0.285114785763
    H            1.481093746187     3.728567954160     0.244095846327

gradient() will perform analytic gradient computation.

*** tstart() called on wr70
*** at Fri Oct  5 14:04:50 2018

   => Loading Basis Set <=

    Name: 6-31G(D)
    Role: ORBITAL
    Keyword: BASIS
    atoms 1, 4, 7, 10, 16                     entry C          line   111 file /usr/local/hpc1/software_molmod/psi4/psi4conda/share/psi4/basis/6-31g_d_.gbs 
    atoms 2-3, 5-6, 8-9, 11-13, 15, 17-19, 21 entry H          line    44 file /usr/local/hpc1/software_molmod/psi4/psi4conda/share/psi4/basis/6-31g_d_.gbs 
    atoms 14, 20                              entry O          line   145 file /usr/local/hpc1/software_molmod/psi4/psi4conda/share/psi4/basis/6-31g_d_.gbs 


         ---------------------------------------------------------
                                   SCF
            by Justin Turney, Rob Parrish, Andy Simmonett
                             and Daniel Smith
                              RHF Reference
                       16 Threads,  95367 MiB Core
         ---------------------------------------------------------

  ==> Geometry <==

    Molecular point group: c1
    Full point group: C1

    Geometry (in Angstrom), charge = 0, multiplicity = 1:

       Center              X                  Y                   Z               Mass       
    ------------   -----------------  -----------------  -----------------  -----------------
         C           -0.434954802127    -0.078954830761    -0.130429820083    12.000000000000
         H           -0.001329645097    -0.231620281967    -1.119031040899     1.007825032070
         H           -1.279174339854     0.599801290514    -0.253698924007     1.007825032070
         C           -0.919339631021    -1.405636794117     0.429394152983    12.000000000000
         H           -1.329406144564    -1.229960824825     1.420609483462     1.007825032070
         H           -0.059052771329    -2.057067385351     0.560258881717     1.007825032070
         C           -1.962883004104    -2.086602464397    -0.456803800649    12.000000000000
         H           -1.546966109575    -2.250253267080    -1.449063174261     1.007825032070
         H           -2.815964332557    -1.424063578481    -0.589504662712     1.007825032070
         C           -2.445211433972    -3.420238637297     0.112994391128    12.000000000000
         H           -3.184370423820    -3.881593144231    -0.534831544783     1.007825032070
         H           -2.898794207159    -3.286470961331     1.090903141178     1.007825032070
         H           -1.620774258844    -4.118558920323     0.225274498009     1.007825032070
         O            0.510108863199     0.457339617364     0.750065768108    15.994914619560
         H            0.824185648176     1.288143411545     0.410591631150     1.007825032070
         C            3.050982486500     2.815493538748    -0.448603466426    12.000000000000
         H            3.480180426825     3.662732463379    -0.974260915282     1.007825032070
         H            3.556000507969     2.692895084419     0.504289834331     1.007825032070
         H            3.206227855632     1.924760619007    -1.039335284380     1.007825032070
         O            1.661965435939     2.964361515352    -0.285114785763    15.994914619560
         H            1.481093746187     3.728567954160     0.244095846327     1.007825032070

  Running in c1 symmetry.

  Rotational constants: A =      0.33253  B =      0.01841  C =      0.01829 [cm^-1]
  Rotational constants: A =   9968.95058  B =    552.06462  C =    548.18998 [MHz]
  Nuclear repulsion =  307.165581539955156

  Charge       = 0
  Multiplicity = 1
  Electrons    = 60
  Nalpha       = 30
  Nbeta        = 30

  ==> Algorithm <==

  SCF Algorithm Type is DF.
  DIIS enabled.
  MOM disabled.
  Fractional occupation disabled.
  Guess Type is READ.
  Energy threshold   = 1.00e-08
  Density threshold  = 1.00e-08
  Integral threshold = 0.00e+00

  ==> Primary Basis <==

  Basis Set: 6-31G(D)
    Blend: 6-31G(D)
    Number of shells: 70
    Number of basis function: 133
    Number of Cartesian functions: 133
    Spherical Harmonics?: false
    Max angular momentum: 2

   => Loading Basis Set <=

    Name: (6-31G(D) AUX)
    Role: JKFIT
    Keyword: DF_BASIS_SCF
    atoms 1, 4, 7, 10, 16                     entry C          line   121 file /usr/local/hpc1/software_molmod/psi4/psi4conda/share/psi4/basis/cc-pvdz-jkfit.gbs 
    atoms 2-3, 5-6, 8-9, 11-13, 15, 17-19, 21 entry H          line    51 file /usr/local/hpc1/software_molmod/psi4/psi4conda/share/psi4/basis/cc-pvdz-jkfit.gbs 
    atoms 14, 20                              entry O          line   221 file /usr/local/hpc1/software_molmod/psi4/psi4conda/share/psi4/basis/cc-pvdz-jkfit.gbs 

  Reading orbitals from file 180, no projection.

  ==> Pre-Iterations <==

   -------------------------------------------------------
    Irrep   Nso     Nmo     Nalpha   Nbeta   Ndocc  Nsocc
   -------------------------------------------------------
     A        133     133       0       0       0       0
   -------------------------------------------------------
    Total     133     133      30      30      30       0
   -------------------------------------------------------

  ==> Integral Setup <==

  ==> DiskDFJK: Density-Fitted J/K Matrices <==

    J tasked:                  Yes
    K tasked:                  Yes
    wK tasked:                  No
    OpenMP threads:             16
    Integrals threads:          16
    Memory (MB):             71525
    Algorithm:                Core
    Integral Cache:           NONE
    Schwarz Cutoff:          1E-12
    Fitting Condition:       1E-12

   => Auxiliary Basis Set <=

  Basis Set: (6-31G(D) AUX)
    Blend: CC-PVDZ-JKFIT
    Number of shells: 294
    Number of basis function: 917
    Number of Cartesian functions: 917
    Spherical Harmonics?: false
    Max angular momentum: 3

  Minimum eigenvalue in the overlap matrix is 3.5461587205E-03.
  Using Symmetric Orthogonalization.

  SCF Guess: Orbitals guess was supplied from a previous computation.

  ==> Iterations <==

                           Total Energy        Delta E     RMS |[F,P]|

   @DF-RHF iter   0:  -347.18906000285216   -3.47189e+02   1.07245e-05 
   @DF-RHF iter   1:  -347.18902728901566    3.27138e-05   1.73014e-06 
   @DF-RHF iter   2:  -347.18902729142701   -2.41135e-09   6.47787e-07 DIIS
   @DF-RHF iter   3:  -347.18902729173141   -3.04397e-10   2.90895e-07 DIIS
   @DF-RHF iter   4:  -347.18902729179666   -6.52562e-11   4.76762e-08 DIIS
   @DF-RHF iter   5:  -347.18902729179865   -1.98952e-12   1.36109e-08 DIIS
   @DF-RHF iter   6:  -347.18902729179956   -9.09495e-13   4.06978e-09 DIIS

  ==> Post-Iterations <==

    Orbital Energies [Eh]
    ---------------------

    Doubly Occupied:                                                      

       1A    -20.581710     2A    -20.522786     3A    -11.280890  
       4A    -11.249903     5A    -11.209661     6A    -11.203222  
       7A    -11.199167     8A     -1.383207     9A     -1.333869  
      10A     -1.059448    11A     -0.962242    12A     -0.943821  
      13A     -0.842390    14A     -0.784154    15A     -0.715890  
      16A     -0.675044    17A     -0.645859    18A     -0.636270  
      19A     -0.613001    20A     -0.590685    21A     -0.579509  
      22A     -0.548619    23A     -0.518804    24A     -0.510765  
      25A     -0.495589    26A     -0.468975    27A     -0.464183  
      28A     -0.460321    29A     -0.442663    30A     -0.411418  

    Virtual:                                                              

      31A      0.205055    32A      0.241878    33A      0.268098  
      34A      0.274415    35A      0.290558    36A      0.302719  
      37A      0.306394    38A      0.319474    39A      0.324445  
      40A      0.340228    41A      0.349249    42A      0.360802  
      43A      0.364755    44A      0.378377    45A      0.382201  
      46A      0.419229    47A      0.445446    48A      0.460026  
      49A      0.506684    50A      0.717029    51A      0.750751  
      52A      0.752523    53A      0.758447    54A      0.766329  
      55A      0.777771    56A      0.784140    57A      0.795338  
      58A      0.864888    59A      0.910231    60A      0.938379  
      61A      0.980950    62A      0.996086    63A      1.032446  
      64A      1.055744    65A      1.090712    66A      1.118385  
      67A      1.130347    68A      1.154246    69A      1.161055  
      70A      1.171533    71A      1.180866    72A      1.182572  
      73A      1.193931    74A      1.207384    75A      1.211295  
      76A      1.219047    77A      1.232096    78A      1.246115  
      79A      1.256778    80A      1.268066    81A      1.275439  
      82A      1.331480    83A      1.382821    84A      1.397806  
      85A      1.453613    86A      1.601286    87A      1.635393  
      88A      1.688123    89A      1.690979    90A      1.717154  
      91A      1.756682    92A      1.790481    93A      1.837727  
      94A      1.855204    95A      1.885013    96A      2.024792  
      97A      2.056768    98A      2.082093    99A      2.097461  
     100A      2.175916   101A      2.246631   102A      2.247636  
     103A      2.285876   104A      2.342453   105A      2.363375  
     106A      2.371034   107A      2.389432   108A      2.433371  
     109A      2.465297   110A      2.485174   111A      2.558832  
     112A      2.623600   113A      2.648954   114A      2.682430  
     115A      2.697488   116A      2.728771   117A      2.764272  
     118A      2.801829   119A      2.828252   120A      2.834996  
     121A      2.893654   122A      2.953353   123A      3.021845  
     124A      3.149980   125A      3.165422   126A      3.304718  
     127A      4.196603   128A      4.402807   129A      4.588534  
     130A      4.635725   131A      4.707019   132A      4.818774  
     133A      4.972161  

    Final Occupation by Irrep:
              A 
    DOCC [    30 ]

  Energy converged.

  @DF-RHF Final Energy:  -347.18902729179956

   => Energetics <=

    Nuclear Repulsion Energy =            307.1655815399551557
    One-Electron Energy =               -1082.0410895846985113
    Two-Electron Energy =                 427.6864807529437940
    Total Energy =                       -347.1890272917995617



Properties will be evaluated at   0.000000,   0.000000,   0.000000 [a0]

Properties computed using the SCF density matrix

  Nuclear Dipole Moment: [e a0]
     X:    -2.0409      Y:    -4.2797      Z:    -1.4074

  Electronic Dipole Moment: [e a0]
     X:     2.5666      Y:     5.2694      Z:     1.0887

  Dipole Moment: [e a0]
     X:     0.5257      Y:     0.9897      Z:    -0.3187     Total:     1.1651

  Dipole Moment: [D]
     X:     1.3362      Y:     2.5157      Z:    -0.8101     Total:     2.9615


*** tstop() called on wr70 at Fri Oct  5 14:04:52 2018
Module time:
	user time   =      20.38 seconds =       0.34 minutes
	system time =       0.43 seconds =       0.01 minutes
	total time  =          2 seconds =       0.03 minutes
Total time:
	user time   =      72.54 seconds =       1.21 minutes
	system time =       2.32 seconds =       0.04 minutes
	total time  =          6 seconds =       0.10 minutes

*** tstart() called on wr70
*** at Fri Oct  5 14:04:52 2018


         ------------------------------------------------------------
                                   SCF GRAD                          
                          Rob Parrish, Justin Turney,                
                       Andy Simmonett, and Alex Sokolov              
         ------------------------------------------------------------

  ==> Geometry <==

    Molecular point group: c1
    Full point group: C1

    Geometry (in Angstrom), charge = 0, multiplicity = 1:

       Center              X                  Y                   Z               Mass       
    ------------   -----------------  -----------------  -----------------  -----------------
         C           -0.434954802127    -0.078954830761    -0.130429820083    12.000000000000
         H           -0.001329645097    -0.231620281967    -1.119031040899     1.007825032070
         H           -1.279174339854     0.599801290514    -0.253698924007     1.007825032070
         C           -0.919339631021    -1.405636794117     0.429394152983    12.000000000000
         H           -1.329406144564    -1.229960824825     1.420609483462     1.007825032070
         H           -0.059052771329    -2.057067385351     0.560258881717     1.007825032070
         C           -1.962883004104    -2.086602464397    -0.456803800649    12.000000000000
         H           -1.546966109575    -2.250253267080    -1.449063174261     1.007825032070
         H           -2.815964332557    -1.424063578481    -0.589504662712     1.007825032070
         C           -2.445211433972    -3.420238637297     0.112994391128    12.000000000000
         H           -3.184370423820    -3.881593144231    -0.534831544783     1.007825032070
         H           -2.898794207159    -3.286470961331     1.090903141178     1.007825032070
         H           -1.620774258844    -4.118558920323     0.225274498009     1.007825032070
         O            0.510108863199     0.457339617364     0.750065768108    15.994914619560
         H            0.824185648176     1.288143411545     0.410591631150     1.007825032070
         C            3.050982486500     2.815493538748    -0.448603466426    12.000000000000
         H            3.480180426825     3.662732463379    -0.974260915282     1.007825032070
         H            3.556000507969     2.692895084419     0.504289834331     1.007825032070
         H            3.206227855632     1.924760619007    -1.039335284380     1.007825032070
         O            1.661965435939     2.964361515352    -0.285114785763    15.994914619560
         H            1.481093746187     3.728567954160     0.244095846327     1.007825032070

  Nuclear repulsion =  307.165581539955156

  ==> Basis Set <==

  Basis Set: 6-31G(D)
    Blend: 6-31G(D)
    Number of shells: 70
    Number of basis function: 133
    Number of Cartesian functions: 133
    Spherical Harmonics?: false
    Max angular momentum: 2

  ==> DFJKGrad: Density-Fitted SCF Gradients <==

    Gradient:                    1
    J tasked:                  Yes
    K tasked:                  Yes
    wK tasked:                  No
    OpenMP threads:             16
    Integrals threads:          16
    Memory (MB):             71525
    Schwarz Cutoff:          0E+00
    Fitting Condition:       1E-12

   => Auxiliary Basis Set <=

  Basis Set: (6-31G(D) AUX)
    Blend: CC-PVDZ-JKFIT
    Number of shells: 294
    Number of basis function: 917
    Number of Cartesian functions: 917
    Spherical Harmonics?: false
    Max angular momentum: 3


  -Total Gradient:
     Atom            X                  Y                   Z
    ------   -----------------  -----------------  -----------------
       1        0.000007732691    -0.000001255564     0.000012652712
       2       -0.000003009625    -0.000002352810    -0.000003532235
       3       -0.000003820784    -0.000001806322    -0.000002802626
       4       -0.000006388832    -0.000002083104    -0.000007660880
       5        0.000000008646     0.000001312814     0.000000843526
       6        0.000001552345     0.000000273264    -0.000000087343
       7        0.000000414220    -0.000003160773     0.000003859656
       8        0.000000383041    -0.000000475137    -0.000000316122
       9       -0.000000585126     0.000000101613     0.000000336743
      10        0.000002512881     0.000005289861    -0.000001414772
      11        0.000000927720     0.000001528466    -0.000000108124
      12        0.000000034956     0.000000381880     0.000000109909
      13        0.000000342362     0.000000152111    -0.000000090496
      14       -0.000002108696     0.000001260930    -0.000006714254
      15        0.000001112635    -0.000001472818     0.000006191017
      16       -0.000013248241    -0.000004731604    -0.000001416896
      17        0.000004589295    -0.000001143444    -0.000000198268
      18        0.000004492210    -0.000000716565    -0.000001379109
      19        0.000007153623     0.000000285838    -0.000000392534
      20        0.000003723143     0.000008271724     0.000002362065
      21       -0.000005818470     0.000000339640    -0.000000241970


*** tstop() called on wr70 at Fri Oct  5 14:04:53 2018
Module time:
	user time   =      23.85 seconds =       0.40 minutes
	system time =       0.67 seconds =       0.01 minutes
	total time  =          1 seconds =       0.02 minutes
Total time:
	user time   =      96.42 seconds =       1.61 minutes
	system time =       3.00 seconds =       0.05 minutes
	total time  =          7 seconds =       0.12 minutes

			-----------------------------------------
			 OPTKING 2.0: for geometry optimizations 
			  - R.A. King,  Bethel University        
			-----------------------------------------

	Previous internal coordinate definitions found.
	---Fragment 1 Geometry and Gradient---
	 C          -0.8219454562       -0.1492030070       -0.2464766395
	 H          -0.0025126651       -0.4376988997       -2.1146622015
	 H          -2.4172891785        1.1334601732       -0.4794214866
	 C          -1.7373001257       -2.6562685832        0.8114373522
	 H          -2.5122135326       -2.3242891131        2.6845628655
	 H          -0.1115935652       -3.8872939952        1.0587358500
	 C          -3.7093113087       -3.9431072059       -0.8632340797
	 H          -2.9233422840       -4.2523624044       -2.7383325486
	 H          -5.3214013885       -2.6910901591       -1.1140023666
	 C          -4.6207799472       -6.4633143336        0.2135284538
	 H          -6.0175880067       -7.3351480019       -1.0106851469
	 H          -5.4779271671       -6.2105300606        2.0615081743
	 H          -3.0628194724       -7.7829484216        0.4257071060
	 O           0.9639660494        0.8642466265        1.4174188834
	 H           1.5574851577        2.4342382677        0.7759057353
	 C           5.7655213357        5.3205117171       -0.8477376938
	 H           6.5765878997        6.9215612538       -1.8410863119
	 H           6.7198670885        5.0888342141        0.9529696785
	 H           6.0588925668        3.6372704413       -1.9640590477
	 O           3.1406595162        5.6018314229       -0.5387888615
	 H           2.7988615574        7.0459723012        0.4612742997
	             0.0000077327       -0.0000012556        0.0000126527
	            -0.0000030096       -0.0000023528       -0.0000035322
	            -0.0000038208       -0.0000018063       -0.0000028026
	            -0.0000063888       -0.0000020831       -0.0000076609
	             0.0000000086        0.0000013128        0.0000008435
	             0.0000015523        0.0000002733       -0.0000000873
	             0.0000004142       -0.0000031608        0.0000038597
	             0.0000003830       -0.0000004751       -0.0000003161
	            -0.0000005851        0.0000001016        0.0000003367
	             0.0000025129        0.0000052899       -0.0000014148
	             0.0000009277        0.0000015285       -0.0000001081
	             0.0000000350        0.0000003819        0.0000001099
	             0.0000003424        0.0000001521       -0.0000000905
	            -0.0000021087        0.0000012609       -0.0000067143
	             0.0000011126       -0.0000014728        0.0000061910
	            -0.0000132482       -0.0000047316       -0.0000014169
	             0.0000045893       -0.0000011434       -0.0000001983
	             0.0000044922       -0.0000007166       -0.0000013791
	             0.0000071536        0.0000002858       -0.0000003925
	             0.0000037231        0.0000082717        0.0000023621
	            -0.0000058185        0.0000003396       -0.0000002420

	---Fragment 1 Intrafragment Coordinates---
	 - Coordinate -           - BOHR/RAD -       - ANG/DEG -
	 H(15,20)         =         3.777368	       1.998897
	 R(1,2)           =         2.060295	       1.090261
	 R(1,3)           =         2.060245	       1.090235
	 R(1,4)           =         2.870964	       1.519249
	 R(1,14)          =         2.642936	       1.398581
	 R(4,5)           =         2.054094	       1.086979
	 R(4,6)           =         2.054143	       1.087005
	 R(4,7)           =         2.889517	       1.529066
	 R(7,8)           =         2.056546	       1.088277
	 R(7,9)           =         2.056518	       1.088262
	 R(7,10)          =         2.888189	       1.528364
	 R(10,11)         =         2.051796	       1.085764
	 R(10,12)         =         2.052713	       1.086249
	 R(10,13)         =         2.052729	       1.086257
	 R(14,15)         =         1.796852	       0.950853
	 R(16,17)         =         2.051324	       1.085514
	 R(16,18)         =         2.051097	       1.085394
	 R(16,19)         =         2.040966	       1.080033
	 R(16,20)         =         2.657911	       1.406506
	 R(20,21)         =         1.789552	       0.946990
	 B(1,4,5)         =         1.891433	     108.371102
	 B(1,4,6)         =         1.891630	     108.382440
	 B(1,4,7)         =         1.974611	     113.136872
	 B(1,14,15)       =         1.910785	     109.479936
	 B(2,1,3)         =         1.867774	     107.015551
	 B(2,1,4)         =         1.916287	     109.795129
	 B(2,1,14)        =         1.934565	     110.842427
	 B(3,1,4)         =         1.916058	     109.782022
	 B(3,1,14)        =         1.934460	     110.836395
	 B(4,1,14)        =         1.894743	     108.560790
	 B(4,7,8)         =         1.911952	     109.546793
	 B(4,7,9)         =         1.911899	     109.543739
	 B(4,7,10)        =         1.969161	     112.824600
	 B(5,4,6)         =         1.860472	     106.597195
	 B(5,4,7)         =         1.920926	     110.060939
	 B(6,4,7)         =         1.920915	     110.060320
	 B(7,10,11)       =         1.942469	     111.295262
	 B(7,10,12)       =         1.939015	     111.097348
	 B(7,10,13)       =         1.939040	     111.098792
	 B(8,7,9)         =         1.854546	     106.257664
	 B(8,7,10)        =         1.906375	     109.227252
	 B(9,7,10)        =         1.906372	     109.227072
	 B(11,10,12)      =         1.880948	     107.770372
	 B(11,10,13)      =         1.880942	     107.770013
	 B(12,10,13)      =         1.878671	     107.639915
	 B(14,15,20)      =         3.045613	     174.500752
	 B(15,20,16)      =         1.945083	     111.445069
	 B(15,20,21)      =         1.984676	     113.713541
	 B(16,20,21)      =         1.916642	     109.815489
	 B(17,16,18)      =         1.906384	     109.227759
	 B(17,16,19)      =         1.898638	     108.783937
	 B(17,16,20)      =         1.943515	     111.355202
	 B(18,16,19)      =         1.896685	     108.672050
	 B(18,16,20)      =         1.949168	     111.679093
	 B(19,16,20)      =         1.867973	     107.026993
	 D(1,4,7,8)       =         1.013974	      58.096429
	 D(1,4,7,9)       =        -1.013837	     -58.088592
	 D(1,4,7,10)      =        -3.141503	    -179.994872
	 D(1,14,15,20)    =        -2.207417	    -126.475702
	 D(2,1,4,5)       =         3.123444	     178.960166
	 D(2,1,4,6)       =         1.110894	      63.649544
	 D(2,1,4,7)       =        -1.024487	     -58.698810
	 D(2,1,14,15)     =         1.032887	      59.180089
	 D(3,1,4,5)       =        -1.110986	     -63.654835
	 D(3,1,4,6)       =        -3.123536	    -178.965458
	 D(3,1,4,7)       =         1.024267	      58.686189
	 D(3,1,14,15)     =        -1.038482	     -59.500608
	 D(4,1,14,15)     =         3.138969	     179.849690
	 D(4,7,10,11)     =         3.141566	     179.998488
	 D(4,7,10,12)     =         1.045450	      59.899901
	 D(4,7,10,13)     =        -1.045494	     -59.902405
	 D(5,4,1,14)      =         1.006094	      57.644957
	 D(5,4,7,8)       =         3.132690	     179.489942
	 D(5,4,7,9)       =         1.104879	      63.304921
	 D(5,4,7,10)      =        -1.022787	     -58.601359
	 D(6,4,1,14)      =        -1.006456	     -57.665665
	 D(6,4,7,8)       =        -1.104989	     -63.311230
	 D(6,4,7,9)       =        -3.132801	    -179.496251
	 D(6,4,7,10)      =         1.022719	      58.597469
	 D(7,4,1,14)      =         3.141348	     179.985981
	 D(8,7,10,11)     =        -1.010770	     -57.912851
	 D(8,7,10,12)     =        -3.106886	    -178.011438
	 D(8,7,10,13)     =         1.085355	      62.186256
	 D(9,7,10,11)     =         1.010788	      57.913859
	 D(9,7,10,12)     =        -1.085328	     -62.184728
	 D(9,7,10,13)     =         3.106912	     178.012966
	 D(14,15,20,16)   =         0.105388	       6.038282
	 D(14,15,20,21)   =        -2.072319	    -118.735161
	 D(15,20,16,17)   =         2.980365	     170.762341
	 D(15,20,16,18)   =        -1.166394	     -66.829479
	 D(15,20,16,19)   =         0.907399	      51.990153
	 D(17,16,20,21)   =        -1.087511	     -62.309780
	 D(18,16,20,21)   =         1.048915	      60.098400
	 D(19,16,20,21)   =         3.122709	     178.918032

	Current energy   :      -347.1890272918

	Energy change for the previous step:
		Projected    :        -0.0000000286
		Actual       :        -0.0000000155

	Performing BFGS update.
	Previous computed or guess Hessian on step 1.
	Steps to be used in Hessian update: 1
	Taking RFO optimization step.
	Going to follow RFO solution 1.
	Using RFO vector 1.
	Norm of target step-size    0.00023
	Projected energy change by RFO approximation:        -0.0000000003

	Back-transformation to cartesian coordinates...
	Successfully converged to displaced geometry.

	--- Internal Coordinate Step in ANG or DEG, aJ/ANG or AJ/DEG ---
	 ---------------------------------------------------------------------------
	   Coordinate                Previous        Force       Change         New 
	   ----------                --------       ------       ------       ------
	    1 H(15,20)        =      1.998897    -0.000023    -0.000050     1.998847
	    2 R(1,2)          =      1.090261    -0.000019    -0.000005     1.090256
	    3 R(1,3)          =      1.090235    -0.000018    -0.000005     1.090230
	    4 R(1,4)          =      1.519249     0.000036     0.000005     1.519254
	    5 R(1,14)         =      1.398581     0.000003     0.000006     1.398587
	    6 R(4,5)          =      1.086979    -0.000008    -0.000003     1.086977
	    7 R(4,6)          =      1.087005    -0.000009    -0.000003     1.087003
	    8 R(4,7)          =      1.529066     0.000048     0.000007     1.529074
	    9 R(7,8)          =      1.088277    -0.000004    -0.000002     1.088275
	   10 R(7,9)          =      1.088262    -0.000004    -0.000002     1.088261
	   11 R(7,10)         =      1.528364     0.000067     0.000012     1.528376
	   12 R(10,11)        =      1.085764     0.000010     0.000001     1.085764
	   13 R(10,12)        =      1.086249    -0.000001    -0.000001     1.086248
	   14 R(10,13)        =      1.086257    -0.000001    -0.000001     1.086256
	   15 R(14,15)        =      0.950853     0.000003    -0.000000     0.950853
	   16 R(16,17)        =      1.085514    -0.000008    -0.000003     1.085511
	   17 R(16,18)        =      1.085394    -0.000008    -0.000003     1.085391
	   18 R(16,19)        =      1.080033    -0.000008    -0.000002     1.080030
	   19 R(16,20)        =      1.406506    -0.000033     0.000002     1.406508
	   20 R(20,21)        =      0.946990    -0.000010    -0.000002     0.946988
	   21 B(1,4,5)        =    108.371102     0.000000     0.000525   108.371627
	   22 B(1,4,6)        =    108.382440     0.000000     0.000515   108.382955
	   23 B(1,4,7)        =    113.136872    -0.000000    -0.000571   113.136301
	   24 B(1,14,15)      =    109.479936    -0.000001    -0.002243   109.477692
	   25 B(2,1,3)        =    107.015551     0.000000     0.001375   107.016926
	   26 B(2,1,4)        =    109.795129     0.000000     0.001362   109.796491
	   27 B(2,1,14)       =    110.842427    -0.000000    -0.001655   110.840772
	   28 B(3,1,4)        =    109.782022     0.000000     0.001291   109.783314
	   29 B(3,1,14)       =    110.836395    -0.000000    -0.001633   110.834761
	   30 B(4,1,14)       =    108.560790    -0.000000    -0.000666   108.560124
	   31 B(4,7,8)        =    109.546793    -0.000000    -0.000068   109.546725
	   32 B(4,7,9)        =    109.543739    -0.000000    -0.000099   109.543640
	   33 B(4,7,10)       =    112.824600     0.000000     0.000526   112.825126
	   34 B(5,4,6)        =    106.597195    -0.000000     0.000300   106.597495
	   35 B(5,4,7)        =    110.060939    -0.000000    -0.000341   110.060598
	   36 B(6,4,7)        =    110.060320    -0.000000    -0.000354   110.059965
	   37 B(7,10,11)      =    111.295262     0.000000     0.000446   111.295708
	   38 B(7,10,12)      =    111.097348     0.000000    -0.000047   111.097301
	   39 B(7,10,13)      =    111.098792     0.000000    -0.000062   111.098730
	   40 B(8,7,9)        =    106.257664     0.000000     0.000005   106.257669
	   41 B(8,7,10)       =    109.227252    -0.000000    -0.000194   109.227059
	   42 B(9,7,10)       =    109.227072    -0.000000    -0.000202   109.226870
	   43 B(11,10,12)     =    107.770372    -0.000000    -0.000182   107.770190
	   44 B(11,10,13)     =    107.770013    -0.000000    -0.000178   107.769835
	   45 B(12,10,13)     =    107.639915    -0.000000     0.000002   107.639917
	   46 B(14,15,20)     =    174.500752     0.000000     0.000516   174.501268
	   47 B(15,20,16)     =    111.445069     0.000000     0.001099   111.446168
	   48 B(15,20,21)     =    113.713541     0.000000    -0.000193   113.713348
	   49 B(16,20,21)     =    109.815489    -0.000001    -0.002687   109.812802
	   50 B(17,16,18)     =    109.227759     0.000000     0.001681   109.229440
	   51 B(17,16,19)     =    108.783937     0.000000     0.001724   108.785661
	   52 B(17,16,20)     =    111.355202    -0.000000    -0.001130   111.354073
	   53 B(18,16,19)     =    108.672050     0.000000     0.001704   108.673753
	   54 B(18,16,20)     =    111.679093    -0.000000    -0.001168   111.677925
	   55 B(19,16,20)     =    107.026993    -0.000001    -0.002740   107.024254
	   56 D(1,4,7,8)      =     58.096429    -0.000000     0.000504    58.096933
	   57 D(1,4,7,9)      =    -58.088592     0.000000     0.000592   -58.088000
	   58 D(1,4,7,10)     =   -179.994872     0.000000     0.000564  -179.994307
	   59 D(1,14,15,20)   =   -126.475702    -0.000000    -0.004741  -126.480442
	   60 D(2,1,4,5)      =    178.960166    -0.000000    -0.001186   178.958980
	   61 D(2,1,4,6)      =     63.649544    -0.000000    -0.002085    63.647459
	   62 D(2,1,4,7)      =    -58.698810    -0.000000    -0.001624   -58.700433
	   63 D(2,1,14,15)    =     59.180089    -0.000000     0.000666    59.180755
	   64 D(3,1,4,5)      =    -63.654835     0.000000     0.002056   -63.652780
	   65 D(3,1,4,6)      =   -178.965458     0.000000     0.001156  -178.964301
	   66 D(3,1,4,7)      =     58.686189     0.000000     0.001618    58.687807
	   67 D(3,1,14,15)    =    -59.500608     0.000000     0.001062   -59.499546
	   68 D(4,1,14,15)    =    179.849690     0.000000     0.000901   179.850590
	   69 D(4,7,10,11)    =    179.998488    -0.000000    -0.000012   179.998476
	   70 D(4,7,10,12)    =     59.899901    -0.000000    -0.000049    59.899852
	   71 D(4,7,10,13)    =    -59.902405     0.000000     0.000020   -59.902385
	   72 D(5,4,1,14)     =     57.644957     0.000000     0.000427    57.645384
	   73 D(5,4,7,8)      =    179.489942     0.000000     0.000539   179.490482
	   74 D(5,4,7,9)      =     63.304921     0.000000     0.000628    63.305549
	   75 D(5,4,7,10)     =    -58.601359     0.000000     0.000600   -58.600758
	   76 D(6,4,1,14)     =    -57.665665    -0.000000    -0.000473   -57.666138
	   77 D(6,4,7,8)      =    -63.311230    -0.000000     0.000490   -63.310740
	   78 D(6,4,7,9)      =   -179.496251    -0.000000     0.000579  -179.495672
	   79 D(6,4,7,10)     =     58.597469    -0.000000     0.000551    58.598020
	   80 D(7,4,1,14)     =    179.985981     0.000000    -0.000011   179.985970
	   81 D(8,7,10,11)    =    -57.912851     0.000000     0.000117   -57.912733
	   82 D(8,7,10,12)    =   -178.011438     0.000000     0.000080  -178.011357
	   83 D(8,7,10,13)    =     62.186256     0.000000     0.000150    62.186406
	   84 D(9,7,10,11)    =     57.913859    -0.000000    -0.000096    57.913763
	   85 D(9,7,10,12)    =    -62.184728    -0.000000    -0.000133   -62.184861
	   86 D(9,7,10,13)    =    178.012966    -0.000000    -0.000064   178.012902
	   87 D(14,15,20,16)  =      6.038282    -0.000000    -0.004549     6.033732
	   88 D(14,15,20,21)  =   -118.735161     0.000000    -0.001675  -118.736835
	   89 D(15,20,16,17)  =    170.762341    -0.000000    -0.001549   170.760791
	   90 D(15,20,16,18)  =    -66.829479     0.000000    -0.001025   -66.830505
	   91 D(15,20,16,19)  =     51.990153    -0.000000    -0.001321    51.988832
	   92 D(17,16,20,21)  =    -62.309780    -0.000000    -0.003030   -62.312810
	   93 D(18,16,20,21)  =     60.098400     0.000000    -0.002506    60.095894
	   94 D(19,16,20,21)  =    178.918032    -0.000000    -0.002801   178.915231
	 ---------------------------------------------------------------------------
	Successfully symmetrized geometry.

  ==> Convergence Check <==

  Measures of convergence in internal coordinates in au.
  Criteria marked as inactive (o), active & met (*), and active & unmet ( ).
  ---------------------------------------------------------------------------------------------
   Step     Total Energy     Delta E     MAX Force     RMS Force      MAX Disp      RMS Disp   
  ---------------------------------------------------------------------------------------------
    Convergence Criteria             o    1.50e-05 *    1.00e-05 *    6.00e-05 *    4.00e-05 *
  ---------------------------------------------------------------------------------------------
      2    -347.18902729   -1.55e-08 o    9.37e-06 *    2.58e-06 *    9.44e-05      2.39e-05 *  ~
  ---------------------------------------------------------------------------------------------

	Writing optimization data to binary file.
	Structure for next step:
	Cartesian Geometry (in Angstrom)
	    C    -0.4349134528  -0.0789742471  -0.1304467600
	    H    -0.0012995630  -0.2316172628  -1.1190504356
	    H    -1.2791024890   0.5998218027  -0.2536591467
	    C    -0.9193019811  -1.4056566299   0.4293861540
	    H    -1.3293359249  -1.2299906942   1.4206137897
	    H    -0.0590307293  -2.0571117841   0.5602080190
	    C    -1.9628952261  -2.0865880707  -0.4567920640
	    H    -1.5470115227  -2.2502399189  -1.4490633056
	    H    -2.8159592817  -1.4240233939  -0.5894614448
	    C    -2.4452571313  -3.4202275504   0.1130013701
	    H    -3.1844485659  -3.8815544487  -0.5348087891
	    H    -2.8988101947  -3.2864596991   1.0909228071
	    H    -1.6208400787  -4.1185750819   0.2252501061
	    O     0.5101953539   0.4572856633   0.7500312537
	    H     0.8242478077   1.2880905839   0.4105385189
	    C     3.0509857558   2.8155304523  -0.4485666325
	    H     3.4801213927   3.6627710067  -0.9742662483
	    H     3.5559268185   2.6930525578   0.5043794847
	    H     3.2063031480   1.9247583989  -1.0392164044
	    O     1.6619416792   2.9642840261  -0.2851871882
	    H     1.4810080518   3.7284986945   0.2439871249
			--------------------------
			 OPTKING Finished Execution 
			--------------------------

    Structure for next step:
    Molecular point group: c1
    Full point group: C1

    Geometry (in Angstrom), charge = 0, multiplicity = 1:

    C           -0.434924836942    -0.078958077650    -0.130434828770
    H           -0.001310947147    -0.231601093363    -1.119038504346
    H           -1.279113873114     0.599837972156    -0.253647215479
    C           -0.919313365271    -1.405640460436     0.429398085190
    H           -1.329347309076    -1.229974524736     1.420625720882
    H           -0.059042113465    -2.057095614610     0.560219950236
    C           -1.962906610216    -2.086571901225    -0.456780132762
    H           -1.547022906890    -2.250223749406    -1.449051374379
    H           -2.815970665889    -1.424007224422    -0.589449513541
    C           -2.445268515410    -3.420211380921     0.113013301274
    H           -3.184459950023    -3.881538279235    -0.534796857894
    H           -2.898821578897    -3.286443529630     1.090934738351
    H           -1.620851462865    -4.118558912392     0.225262037336
    O            0.510183969758     0.457301832786     0.750043184907
    H            0.824236423551     1.288106753352     0.410550450113
    C            3.050974371662     2.815546621751    -0.448554701270
    H            3.480110008589     3.662787176179    -0.974254317128
    H            3.555915434338     2.693068727314     0.504391415907
    H            3.206291763876     1.924774568417    -1.039204473185
    O            1.661930295042     2.964300195611    -0.285175256948
    H            1.480996667642     3.728514863962     0.243999056130

gradient() will perform analytic gradient computation.

*** tstart() called on wr70
*** at Fri Oct  5 14:04:53 2018

   => Loading Basis Set <=

    Name: 6-31G(D)
    Role: ORBITAL
    Keyword: BASIS
    atoms 1, 4, 7, 10, 16                     entry C          line   111 file /usr/local/hpc1/software_molmod/psi4/psi4conda/share/psi4/basis/6-31g_d_.gbs 
    atoms 2-3, 5-6, 8-9, 11-13, 15, 17-19, 21 entry H          line    44 file /usr/local/hpc1/software_molmod/psi4/psi4conda/share/psi4/basis/6-31g_d_.gbs 
    atoms 14, 20                              entry O          line   145 file /usr/local/hpc1/software_molmod/psi4/psi4conda/share/psi4/basis/6-31g_d_.gbs 


         ---------------------------------------------------------
                                   SCF
            by Justin Turney, Rob Parrish, Andy Simmonett
                             and Daniel Smith
                              RHF Reference
                       16 Threads,  95367 MiB Core
         ---------------------------------------------------------

  ==> Geometry <==

    Molecular point group: c1
    Full point group: C1

    Geometry (in Angstrom), charge = 0, multiplicity = 1:

       Center              X                  Y                   Z               Mass       
    ------------   -----------------  -----------------  -----------------  -----------------
         C           -0.434924836942    -0.078958077650    -0.130434828770    12.000000000000
         H           -0.001310947147    -0.231601093363    -1.119038504346     1.007825032070
         H           -1.279113873114     0.599837972156    -0.253647215479     1.007825032070
         C           -0.919313365271    -1.405640460436     0.429398085190    12.000000000000
         H           -1.329347309076    -1.229974524736     1.420625720882     1.007825032070
         H           -0.059042113465    -2.057095614610     0.560219950236     1.007825032070
[...]
	            -0.0000001093       -0.0000012656        0.0000009644
	            -0.0000002195       -0.0000001453       -0.0000005979
	            -0.0000005026        0.0000000721       -0.0000004063
	             0.0000009984        0.0000015213        0.0000000667
	            -0.0000001181       -0.0000003229        0.0000005988
	             0.0000002781       -0.0000005443        0.0000003657
	             0.0000002981        0.0000002394        0.0000002482
	             0.0000002879        0.0000001373        0.0000003136
	             0.0000001296        0.0000000257       -0.0000005918
	            -0.0000004207        0.0000003956       -0.0000002337
	            -0.0000002217        0.0000008511       -0.0000039611
	            -0.0000016111       -0.0000022122        0.0000032515
	            -0.0000022810        0.0000007731        0.0000016250
	             0.0000005606       -0.0000005244        0.0000001696
	             0.0000002918       -0.0000001102       -0.0000006150
	            -0.0000010055        0.0000003274        0.0000000674
	             0.0000023907        0.0000020245       -0.0000008958
	             0.0000005838       -0.0000011830       -0.0000012303

	---Fragment 1 Intrafragment Coordinates---
	 - Coordinate -           - BOHR/RAD -       - ANG/DEG -
	 H(15,20)         =         3.777274	       1.998847
	 R(1,2)           =         2.060285	       1.090256
	 R(1,3)           =         2.060235	       1.090230
	 R(1,4)           =         2.870973	       1.519254
	 R(1,14)          =         2.642947	       1.398587
	 R(4,5)           =         2.054088	       1.086977
	 R(4,6)           =         2.054137	       1.087003
	 R(4,7)           =         2.889530	       1.529074
	 R(7,8)           =         2.056543	       1.088275
	 R(7,9)           =         2.056515	       1.088261
	 R(7,10)          =         2.888211	       1.528376
	 R(10,11)         =         2.051797	       1.085764
	 R(10,12)         =         2.052711	       1.086248
	 R(10,13)         =         2.052727	       1.086256
	 R(14,15)         =         1.796851	       0.950853
	 R(16,17)         =         2.051318	       1.085511
	 R(16,18)         =         2.051091	       1.085391
	 R(16,19)         =         2.040962	       1.080030
	 R(16,20)         =         2.657914	       1.406508
	 R(20,21)         =         1.789548	       0.946988
	 B(1,4,5)         =         1.891442	     108.371627
	 B(1,4,6)         =         1.891639	     108.382955
	 B(1,4,7)         =         1.974601	     113.136301
	 B(1,14,15)       =         1.910746	     109.477692
	 B(2,1,3)         =         1.867798	     107.016926
	 B(2,1,4)         =         1.916310	     109.796491
	 B(2,1,14)        =         1.934536	     110.840772
	 B(3,1,4)         =         1.916080	     109.783314
	 B(3,1,14)        =         1.934432	     110.834761
	 B(4,1,14)        =         1.894732	     108.560124
	 B(4,7,8)         =         1.911951	     109.546725
	 B(4,7,9)         =         1.911897	     109.543640
	 B(4,7,10)        =         1.969170	     112.825126
	 B(5,4,6)         =         1.860477	     106.597495
	 B(5,4,7)         =         1.920920	     110.060598
	 B(6,4,7)         =         1.920909	     110.059965
	 B(7,10,11)       =         1.942477	     111.295708
	 B(7,10,12)       =         1.939014	     111.097301
	 B(7,10,13)       =         1.939039	     111.098730
	 B(8,7,9)         =         1.854546	     106.257669
	 B(8,7,10)        =         1.906372	     109.227059
	 B(9,7,10)        =         1.906369	     109.226870
	 B(11,10,12)      =         1.880945	     107.770190
	 B(11,10,13)      =         1.880938	     107.769835
	 B(12,10,13)      =         1.878671	     107.639917
	 B(14,15,20)      =         3.045622	     174.501268
	 B(15,20,16)      =         1.945103	     111.446168
	 B(15,20,21)      =         1.984672	     113.713348
	 B(16,20,21)      =         1.916595	     109.812802
	 B(17,16,18)      =         1.906413	     109.229440
	 B(17,16,19)      =         1.898668	     108.785661
	 B(17,16,20)      =         1.943495	     111.354073
	 B(18,16,19)      =         1.896715	     108.673753
	 B(18,16,20)      =         1.949147	     111.677925
	 B(19,16,20)      =         1.867926	     107.024254
	 D(1,4,7,8)       =         1.013983	      58.096933
	 D(1,4,7,9)       =        -1.013827	     -58.088000
	 D(1,4,7,10)      =        -3.141493	    -179.994307
	 D(1,14,15,20)    =        -2.207500	    -126.480442
	 D(2,1,4,5)       =         3.123423	     178.958980
	 D(2,1,4,6)       =         1.110858	      63.647459
	 D(2,1,4,7)       =        -1.024516	     -58.700433
	 D(2,1,14,15)     =         1.032899	      59.180755
	 D(3,1,4,5)       =        -1.110951	     -63.652780
	 D(3,1,4,6)       =        -3.123516	    -178.964301
	 D(3,1,4,7)       =         1.024295	      58.687807
	 D(3,1,14,15)     =        -1.038463	     -59.499546
	 D(4,1,14,15)     =         3.138985	     179.850590
	 D(4,7,10,11)     =         3.141566	     179.998476
	 D(4,7,10,12)     =         1.045450	      59.899852
	 D(4,7,10,13)     =        -1.045494	     -59.902385
	 D(5,4,1,14)      =         1.006102	      57.645384
	 D(5,4,7,8)       =         3.132700	     179.490482
	 D(5,4,7,9)       =         1.104890	      63.305549
	 D(5,4,7,10)      =        -1.022776	     -58.600758
	 D(6,4,1,14)      =        -1.006464	     -57.666138
	 D(6,4,7,8)       =        -1.104981	     -63.310740
	 D(6,4,7,9)       =        -3.132790	    -179.495672
	 D(6,4,7,10)      =         1.022728	      58.598020
	 D(7,4,1,14)      =         3.141348	     179.985970
	 D(8,7,10,11)     =        -1.010768	     -57.912733
	 D(8,7,10,12)     =        -3.106884	    -178.011357
	 D(8,7,10,13)     =         1.085358	      62.186406
	 D(9,7,10,11)     =         1.010786	      57.913763
	 D(9,7,10,12)     =        -1.085331	     -62.184861
	 D(9,7,10,13)     =         3.106911	     178.012902
	 D(14,15,20,16)   =         0.105308	       6.033732
	 D(14,15,20,21)   =        -2.072349	    -118.736835
	 D(15,20,16,17)   =         2.980338	     170.760791
	 D(15,20,16,18)   =        -1.166412	     -66.830505
	 D(15,20,16,19)   =         0.907376	      51.988832
	 D(17,16,20,21)   =        -1.087564	     -62.312810
	 D(18,16,20,21)   =         1.048871	      60.095894
	 D(19,16,20,21)   =         3.122660	     178.915231

	Current energy   :      -347.1890272942

	Energy change for the previous step:
		Projected    :        -0.0000000003
		Actual       :        -0.0000000024
	Energy ratio indicates good step: Trust radius increased to 1.000e+00.


	Performing BFGS update.
	Previous computed or guess Hessian on step 1.
	Denominators (dg)(dq) or (dq)(dq) are very small.
	 Skipping Hessian update for step 2.
	Steps to be used in Hessian update: 1
	Taking RFO optimization step.
	Going to follow RFO solution 1.
	Using RFO vector 1.
	Norm of target step-size    0.00012
	Projected energy change by RFO approximation:        -0.0000000002

	Back-transformation to cartesian coordinates...
	Successfully converged to displaced geometry.

	--- Internal Coordinate Step in ANG or DEG, aJ/ANG or AJ/DEG ---
	 ---------------------------------------------------------------------------
	   Coordinate                Previous        Force       Change         New 
	   ----------                --------       ------       ------       ------
	    1 H(15,20)        =      1.998847    -0.000013    -0.000031     1.998816
	    2 R(1,2)          =      1.090256     0.000004     0.000000     1.090256
	    3 R(1,3)          =      1.090230     0.000005     0.000000     1.090230
	    4 R(1,4)          =      1.519254     0.000000    -0.000000     1.519253
	    5 R(1,14)         =      1.398587     0.000016     0.000004     1.398591
	    6 R(4,5)          =      1.086977     0.000004     0.000000     1.086977
	    7 R(4,6)          =      1.087003     0.000004     0.000000     1.087003
	    8 R(4,7)          =      1.529074     0.000017     0.000003     1.529077
	    9 R(7,8)          =      1.088275     0.000004     0.000001     1.088276
	   10 R(7,9)          =      1.088261     0.000005     0.000001     1.088261
	   11 R(7,10)         =      1.528376     0.000007     0.000001     1.528377
	   12 R(10,11)        =      1.085764     0.000004     0.000001     1.085765
	   13 R(10,12)        =      1.086248     0.000005     0.000001     1.086249
	   14 R(10,13)        =      1.086256     0.000005     0.000001     1.086257
	   15 R(14,15)        =      0.950853     0.000016     0.000002     0.950855
	   16 R(16,17)        =      1.085511     0.000002     0.000000     1.085511
	   17 R(16,18)        =      1.085391     0.000003     0.000000     1.085391
	   18 R(16,19)        =      1.080030     0.000004     0.000000     1.080031
	   19 R(16,20)        =      1.406508     0.000021     0.000004     1.406512
	   20 R(20,21)        =      0.946988     0.000014     0.000001     0.946990
	   21 B(1,4,5)        =    108.371627    -0.000000    -0.000132   108.371495
	   22 B(1,4,6)        =    108.382955    -0.000000    -0.000150   108.382805
	   23 B(1,4,7)        =    113.136301     0.000000     0.000220   113.136522
	   24 B(1,14,15)      =    109.477692    -0.000000    -0.000677   109.477015
	   25 B(2,1,3)        =    107.016926     0.000000     0.000056   107.016981
	   26 B(2,1,4)        =    109.796491    -0.000000    -0.000165   109.796326
	   27 B(2,1,14)       =    110.840772     0.000000     0.000075   110.840847
	   28 B(3,1,4)        =    109.783314    -0.000000    -0.000169   109.783144
	   29 B(3,1,14)       =    110.834761     0.000000     0.000089   110.834850
	   30 B(4,1,14)       =    108.560124     0.000000     0.000106   108.560230
	   31 B(4,7,8)        =    109.546725    -0.000000    -0.000078   109.546647
	   32 B(4,7,9)        =    109.543640    -0.000000    -0.000047   109.543593
	   33 B(4,7,10)       =    112.825126     0.000000     0.000104   112.825230
	   34 B(5,4,6)        =    106.597495    -0.000000    -0.000137   106.597359
	   35 B(5,4,7)        =    110.060598    -0.000000     0.000103   110.060701
	   36 B(6,4,7)        =    110.059965    -0.000000     0.000068   110.060033
	   37 B(7,10,11)      =    111.295708    -0.000000    -0.000054   111.295655
	   38 B(7,10,12)      =    111.097301     0.000000     0.000010   111.097311
	   39 B(7,10,13)      =    111.098730     0.000000     0.000017   111.098748
	   40 B(8,7,9)        =    106.257669    -0.000000    -0.000147   106.257523
	   41 B(8,7,10)       =    109.227059     0.000000     0.000070   109.227128
	   42 B(9,7,10)       =    109.226870     0.000000     0.000084   109.226954
	   43 B(11,10,12)     =    107.770190     0.000000     0.000041   107.770231
	   44 B(11,10,13)     =    107.769835     0.000000     0.000038   107.769873
	   45 B(12,10,13)     =    107.639917    -0.000000    -0.000052   107.639866
	   46 B(14,15,20)     =    174.501268     0.000000     0.000582   174.501851
	   47 B(15,20,16)     =    111.446168     0.000000     0.001007   111.447176
	   48 B(15,20,21)     =    113.713348    -0.000000    -0.000196   113.713152
	   49 B(16,20,21)     =    109.812802    -0.000000     0.000159   109.812962
	   50 B(17,16,18)     =    109.229440     0.000000     0.000024   109.229464
	   51 B(17,16,19)     =    108.785661    -0.000000     0.000092   108.785753
	   52 B(17,16,20)     =    111.354073    -0.000000    -0.000481   111.353592
	   53 B(18,16,19)     =    108.673753    -0.000000     0.000029   108.673783
	   54 B(18,16,20)     =    111.677925    -0.000000    -0.000378   111.677546
	   55 B(19,16,20)     =    107.024254     0.000000     0.000748   107.025002
	   56 D(1,4,7,8)      =     58.096933    -0.000000    -0.000795    58.096138
	   57 D(1,4,7,9)      =    -58.088000     0.000000    -0.000546   -58.088547
	   58 D(1,4,7,10)     =   -179.994307    -0.000000    -0.000691  -179.994998
	   59 D(1,14,15,20)   =   -126.480442    -0.000000    -0.003276  -126.483718
	   60 D(2,1,4,5)      =    178.958980    -0.000000     0.000085   178.959065
	   61 D(2,1,4,6)      =     63.647459     0.000000     0.000394    63.647852
	   62 D(2,1,4,7)      =    -58.700433     0.000000     0.000268   -58.700165
	   63 D(2,1,14,15)    =     59.180755     0.000000     0.000435    59.181190
	   64 D(3,1,4,5)      =    -63.652780    -0.000000    -0.000044   -63.652824
	   65 D(3,1,4,6)      =   -178.964301     0.000000     0.000264  -178.964037
	   66 D(3,1,4,7)      =     58.687807    -0.000000     0.000139    58.687945
	   67 D(3,1,14,15)    =    -59.499546    -0.000000     0.000260   -59.499285
	   68 D(4,1,14,15)    =    179.850590     0.000000     0.000346   179.850937
	   69 D(4,7,10,11)    =    179.998476     0.000000     0.000210   179.998686
	   70 D(4,7,10,12)    =     59.899852    -0.000000     0.000187    59.900038
	   71 D(4,7,10,13)    =    -59.902385     0.000000     0.000233   -59.902152
	   72 D(5,4,1,14)     =     57.645384    -0.000000     0.000028    57.645412
	   73 D(5,4,7,8)      =    179.490482    -0.000000    -0.000738   179.489744
	   74 D(5,4,7,9)      =     63.305549     0.000000    -0.000490    63.305059
	   75 D(5,4,7,10)     =    -58.600758     0.000000    -0.000634   -58.601392
	   76 D(6,4,1,14)     =    -57.666138     0.000000     0.000336   -57.665801
	   77 D(6,4,7,8)      =    -63.310740    -0.000000    -0.000802   -63.311542
	   78 D(6,4,7,9)      =   -179.495672     0.000000    -0.000554  -179.496227
	   79 D(6,4,7,10)     =     58.598020    -0.000000    -0.000698    58.597322
	   80 D(7,4,1,14)     =    179.985970     0.000000     0.000211   179.986181
	   81 D(8,7,10,11)    =    -57.912733     0.000000     0.000230   -57.912503
	   82 D(8,7,10,12)    =   -178.011357    -0.000000     0.000207  -178.011151
	   83 D(8,7,10,13)    =     62.186406     0.000000     0.000254    62.186659
	   84 D(9,7,10,11)    =     57.913763    -0.000000     0.000140    57.913903
	   85 D(9,7,10,12)    =    -62.184861    -0.000000     0.000117   -62.184744
	   86 D(9,7,10,13)    =    178.012902     0.000000     0.000164   178.013065
	   87 D(14,15,20,16)  =      6.033732     0.000000    -0.001062     6.032670
	   88 D(14,15,20,21)  =   -118.736835    -0.000000    -0.001937  -118.738772
	   89 D(15,20,16,17)  =    170.760791     0.000000    -0.001285   170.759506
	   90 D(15,20,16,18)  =    -66.830505    -0.000000    -0.001871   -66.832375
	   91 D(15,20,16,19)  =     51.988832    -0.000000    -0.001584    51.987248
	   92 D(17,16,20,21)  =    -62.312810     0.000000    -0.000668   -62.313477
	   93 D(18,16,20,21)  =     60.095894    -0.000000    -0.001253    60.094641
	   94 D(19,16,20,21)  =    178.915231    -0.000000    -0.000967   178.914264
	 ---------------------------------------------------------------------------
	Successfully symmetrized geometry.

  ==> Convergence Check <==

  Measures of convergence in internal coordinates in au.
  Criteria marked as inactive (o), active & met (*), and active & unmet ( ).
  ---------------------------------------------------------------------------------------------
   Step     Total Energy     Delta E     MAX Force     RMS Force      MAX Disp      RMS Disp   
  ---------------------------------------------------------------------------------------------
    Convergence Criteria             o    1.50e-05 *    1.00e-05 *    6.00e-05 *    4.00e-05 *
  ---------------------------------------------------------------------------------------------
      3    -347.18902729   -2.41e-09 o    2.60e-06 *    7.68e-07 *    5.84e-05 *    1.23e-05 *  ~
  ---------------------------------------------------------------------------------------------


  **** Optimization is complete! (in 3 steps) ****

  ==> Optimization Summary <==

  Measures of convergence in internal coordinates in au.
  --------------------------------------------------------------------------------------------------------------- ~
   Step         Total Energy             Delta E       MAX Force       RMS Force        MAX Disp        RMS Disp  ~
  --------------------------------------------------------------------------------------------------------------- ~
      1    -347.189027276346   -347.189027276346      0.00005980      0.00001053      0.00020287      0.00005612  ~
      2    -347.189027291800     -0.000000015453      0.00000937      0.00000258      0.00009444      0.00002388  ~
      3    -347.189027294211     -0.000000002412      0.00000260      0.00000077      0.00005837      0.00001226  ~
  --------------------------------------------------------------------------------------------------------------- ~

	Writing optimization data to binary file.
	Final energy is   -347.1890272942115
	Final (previous) structure:
	Cartesian Geometry (in Angstrom)
	    C    -0.4349248369  -0.0789580776  -0.1304348288
	    H    -0.0013109471  -0.2316010934  -1.1190385043
	    H    -1.2791138731   0.5998379722  -0.2536472155
	    C    -0.9193133653  -1.4056404604   0.4293980852
	    H    -1.3293473091  -1.2299745247   1.4206257209
	    H    -0.0590421135  -2.0570956146   0.5602199502
	    C    -1.9629066102  -2.0865719012  -0.4567801328
	    H    -1.5470229069  -2.2502237494  -1.4490513744
	    H    -2.8159706659  -1.4240072244  -0.5894495135
	    C    -2.4452685154  -3.4202113809   0.1130133013
	    H    -3.1844599500  -3.8815382792  -0.5347968579
	    H    -2.8988215789  -3.2864435296   1.0909347384
	    H    -1.6208514629  -4.1185589124   0.2252620373
	    O     0.5101839698   0.4573018328   0.7500431849
	    H     0.8242364236   1.2881067534   0.4105504501
	    C     3.0509743717   2.8155466218  -0.4485547013
	    H     3.4801100086   3.6627871762  -0.9742543171
	    H     3.5559154343   2.6930687273   0.5043914159
	    H     3.2062917639   1.9247745684  -1.0392044732
	    O     1.6619302950   2.9643001956  -0.2851752569
	    H     1.4809966676   3.7285148640   0.2439990561
	Saving final (previous) structure.
	Removing binary optimization data file.
			--------------------------
			 OPTKING Finished Execution 
			--------------------------

    Final optimized geometry and variables:
    Molecular point group: c1
    Full point group: C1

    Geometry (in Angstrom), charge = 0, multiplicity = 1:

    C           -0.434924836942    -0.078958077650    -0.130434828770
    H           -0.001310947147    -0.231601093363    -1.119038504346
    H           -1.279113873114     0.599837972156    -0.253647215479
    C           -0.919313365271    -1.405640460436     0.429398085190
    H           -1.329347309076    -1.229974524736     1.420625720882
    H           -0.059042113465    -2.057095614610     0.560219950236
    C           -1.962906610216    -2.086571901225    -0.456780132762
    H           -1.547022906890    -2.250223749406    -1.449051374379
    H           -2.815970665889    -1.424007224422    -0.589449513541
    C           -2.445268515410    -3.420211380921     0.113013301274
    H           -3.184459950023    -3.881538279235    -0.534796857894
    H           -2.898821578897    -3.286443529630     1.090934738351
    H           -1.620851462865    -4.118558912392     0.225262037336
    O            0.510183969758     0.457301832786     0.750043184907
    H            0.824236423551     1.288106753352     0.410550450113
    C            3.050974371662     2.815546621751    -0.448554701270
    H            3.480110008589     3.662787176179    -0.974254317128
    H            3.555915434338     2.693068727314     0.504391415907
    H            3.206291763876     1.924774568417    -1.039204473185
    O            1.661930295042     2.964300195611    -0.285175256948
    H            1.480996667642     3.728514863962     0.243999056130

	Removing binary optimization data file.
	Cleaning optimization helper files.

    Psi4 stopped on: Friday, 05 October 2018 02:04PM
    Psi4 wall time for execution: 0:00:10.89

*** Psi4 exiting successfully. Buy a developer a beer!
