
    -----------------------------------------------------------------------
          Psi4: An Open-Source Ab Initio Electronic Structure Package
                               Psi4 1.2.1 release

                         Git: Rev {HEAD} 406f4de 


    R. M. Parrish, L. A. Burns, D. G. A. Smith, A. C. Simmonett,
    A. E. DePrince III, E. G. Hohenstein, U. Bozkaya, A. Yu. Sokolov,
    R. Di Remigio, R. M. Richard, J. F. Gonthier, A. M. James,
    H. R. McAlexander, A. Kumar, M. Saitow, X. Wang, B. P. Pritchard,
    P. Verma, H. F. Schaefer III, K. Patkowski, R. A. King, E. F. Valeev,
    F. A. Evangelista, J. M. Turney, T. D. Crawford, and C. D. Sherrill,
    J. Chem. Theory Comput. 13(7) pp 3185--3197 (2017).
    (doi: 10.1021/acs.jctc.7b00174)


                         Additional Contributions by
    P. Kraus, H. Kruse, M. H. Lechner, M. C. Schieber, and R. A. Shaw

    -----------------------------------------------------------------------


    Psi4 started on: Thursday, 06 December 2018 04:14PM

    Process ID: 226983
    Host:       wr86
    PSIDATADIR: /usr/local/hpc1/software_molmod/psi4/psi4conda/share/psi4
    Memory:     500.0 MiB
    Threads:    16
    
  ==> Input File <==

--------------------------------------------------------------------------
memory 100 Gb

molecule conf_01 {
0 1
  C    -0.434924836942    -0.078958077650    -0.130434828770
  H    -0.001310947147    -0.231601093363    -1.119038504346
  H    -1.279113873114     0.599837972156    -0.253647215479
  C    -0.919313365271    -1.405640460436     0.429398085190
  H    -1.329347309076    -1.229974524736     1.420625720882
  H    -0.059042113465    -2.057095614610     0.560219950236
  C    -1.962906610216    -2.086571901225    -0.456780132762
  H    -1.547022906890    -2.250223749406    -1.449051374379
  H    -2.815970665889    -1.424007224422    -0.589449513541
  C    -2.445268515410    -3.420211380921     0.113013301274
  H    -3.184459950023    -3.881538279235    -0.534796857894
  H    -2.898821578897    -3.286443529630     1.090934738351
  H    -1.620851462865    -4.118558912392     0.225262037336
  O     0.510183969758     0.457301832786     0.750043184907
  H     0.824236423551     1.288106753352     0.410550450113
  C     3.050974371662     2.815546621751    -0.448554701270
  H     3.480110008589     3.662787176179    -0.974254317128
  H     3.555915434338     2.693068727314     0.504391415907
  H     3.206291763876     1.924774568417    -1.039204473185
  O     1.661930295042     2.964300195611    -0.285175256948
  H     1.480996667642     3.728514863962     0.243999056130
}
set globals {
  reference rhf
  basis 6-31G(d)
}
frequency('scf', dertype=1)
--------------------------------------------------------------------------

  Memory set to  93.132 GiB by Python driver.
gradient() will perform analytic gradient computation.

*** tstart() called on wr86
*** at Thu Dec  6 16:14:00 2018

   => Loading Basis Set <=

    Name: 6-31G(D)
    Role: ORBITAL
    Keyword: BASIS
    atoms 1, 4, 7, 10, 16                     entry C          line   111 file /usr/local/hpc1/software_molmod/psi4/psi4conda/share/psi4/basis/6-31g_d_.gbs 
    atoms 2-3, 5-6, 8-9, 11-13, 15, 17-19, 21 entry H          line    44 file /usr/local/hpc1/software_molmod/psi4/psi4conda/share/psi4/basis/6-31g_d_.gbs 
    atoms 14, 20                              entry O          line   145 file /usr/local/hpc1/software_molmod/psi4/psi4conda/share/psi4/basis/6-31g_d_.gbs 


         ---------------------------------------------------------
                                   SCF
            by Justin Turney, Rob Parrish, Andy Simmonett
                             and Daniel Smith
                              RHF Reference
                       16 Threads,  95367 MiB Core
         ---------------------------------------------------------

  ==> Geometry <==

    Molecular point group: c1
    Full point group: C1

    Geometry (in Angstrom), charge = 0, multiplicity = 1:

       Center              X                  Y                   Z               Mass       
    ------------   -----------------  -----------------  -----------------  -----------------
         C           -0.434924836942    -0.078958077650    -0.130434828770    12.000000000000
         H           -0.001310947147    -0.231601093363    -1.119038504346     1.007825032070
         H           -1.279113873114     0.599837972156    -0.253647215479     1.007825032070
         C           -0.919313365271    -1.405640460436     0.429398085190    12.000000000000
         H           -1.329347309076    -1.229974524736     1.420625720882     1.007825032070
         H           -0.059042113465    -2.057095614610     0.560219950236     1.007825032070
         C           -1.962906610216    -2.086571901225    -0.456780132762    12.000000000000
         H           -1.547022906890    -2.250223749406    -1.449051374379     1.007825032070
         H           -2.815970665889    -1.424007224422    -0.589449513541     1.007825032070
         C           -2.445268515410    -3.420211380921     0.113013301274    12.000000000000
         H           -3.184459950023    -3.881538279235    -0.534796857894     1.007825032070
         H           -2.898821578897    -3.286443529630     1.090934738351     1.007825032070
         H           -1.620851462865    -4.118558912392     0.225262037336     1.007825032070
         O            0.510183969758     0.457301832786     0.750043184907    15.994914619560
         H            0.824236423551     1.288106753352     0.410550450113     1.007825032070
         C            3.050974371662     2.815546621751    -0.448554701270    12.000000000000
         H            3.480110008589     3.662787176179    -0.974254317128     1.007825032070
         H            3.555915434338     2.693068727314     0.504391415907     1.007825032070
         H            3.206291763876     1.924774568417    -1.039204473185     1.007825032070
         O            1.661930295042     2.964300195611    -0.285175256948    15.994914619560
         H            1.480996667642     3.728514863962     0.243999056130     1.007825032070

  Running in c1 symmetry.

  Rotational constants: A =      0.33254  B =      0.01842  C =      0.01829 [cm^-1]
  Rotational constants: A =   9969.39942  B =    552.06837  C =    548.19078 [MHz]
  Nuclear repulsion =  307.165979971748357

  Charge       = 0
  Multiplicity = 1
  Electrons    = 60
  Nalpha       = 30
  Nbeta        = 30

  ==> Algorithm <==

  SCF Algorithm Type is DF.
  DIIS enabled.
  MOM disabled.
  Fractional occupation disabled.
  Guess Type is SAD.
  Energy threshold   = 1.00e-08
  Density threshold  = 1.00e-08
  Integral threshold = 0.00e+00

  ==> Primary Basis <==

  Basis Set: 6-31G(D)
    Blend: 6-31G(D)
    Number of shells: 70
    Number of basis function: 133
    Number of Cartesian functions: 133
    Spherical Harmonics?: false
    Max angular momentum: 2

   => Loading Basis Set <=

    Name: (6-31G(D) AUX)
    Role: JKFIT
    Keyword: DF_BASIS_SCF
    atoms 1, 4, 7, 10, 16                     entry C          line   121 file /usr/local/hpc1/software_molmod/psi4/psi4conda/share/psi4/basis/cc-pvdz-jkfit.gbs 
    atoms 2-3, 5-6, 8-9, 11-13, 15, 17-19, 21 entry H          line    51 file /usr/local/hpc1/software_molmod/psi4/psi4conda/share/psi4/basis/cc-pvdz-jkfit.gbs 
    atoms 14, 20                              entry O          line   221 file /usr/local/hpc1/software_molmod/psi4/psi4conda/share/psi4/basis/cc-pvdz-jkfit.gbs 

  ==> Pre-Iterations <==

   -------------------------------------------------------
    Irrep   Nso     Nmo     Nalpha   Nbeta   Ndocc  Nsocc
   -------------------------------------------------------
     A        133     133       0       0       0       0
   -------------------------------------------------------
    Total     133     133      30      30      30       0
   -------------------------------------------------------

  ==> Integral Setup <==

  ==> DiskDFJK: Density-Fitted J/K Matrices <==

    J tasked:                  Yes
    K tasked:                  Yes
    wK tasked:                  No
    OpenMP threads:             16
    Integrals threads:          16
    Memory (MB):             71525
    Algorithm:                Core
    Integral Cache:           NONE
    Schwarz Cutoff:          1E-12
    Fitting Condition:       1E-12

   => Auxiliary Basis Set <=

  Basis Set: (6-31G(D) AUX)
    Blend: CC-PVDZ-JKFIT
    Number of shells: 294
    Number of basis function: 917
    Number of Cartesian functions: 917
    Spherical Harmonics?: false
    Max angular momentum: 3

  Minimum eigenvalue in the overlap matrix is 3.5462154575E-03.
  Using Symmetric Orthogonalization.

  SCF Guess: Superposition of Atomic Densities via on-the-fly atomic UHF.

  ==> Iterations <==

                           Total Energy        Delta E     RMS |[F,P]|

   @DF-RHF iter   0:  -349.66990292322822   -3.49670e+02   1.03304e-01 
   @DF-RHF iter   1:  -347.00804844375062    2.66185e+00   1.26664e-02 
   @DF-RHF iter   2:  -347.16857220537435   -1.60524e-01   3.48677e-03 DIIS
   @DF-RHF iter   3:  -347.18514061926453   -1.65684e-02   2.36195e-03 DIIS
   @DF-RHF iter   4:  -347.18873853993318   -3.59792e-03   4.26120e-04 DIIS
   @DF-RHF iter   5:  -347.18900619935852   -2.67659e-04   1.21010e-04 DIIS
   @DF-RHF iter   6:  -347.18902550960308   -1.93102e-05   3.82749e-05 DIIS
   @DF-RHF iter   7:  -347.18902708373946   -1.57414e-06   8.88293e-06 DIIS
   @DF-RHF iter   8:  -347.18902727723196   -1.93492e-07   3.64035e-06 DIIS
   @DF-RHF iter   9:  -347.18902729212175   -1.48898e-08   9.19409e-07 DIIS
   @DF-RHF iter  10:  -347.18902729374605   -1.62430e-09   1.84550e-07 DIIS
   @DF-RHF iter  11:  -347.18902729383831   -9.22569e-11   5.58459e-08 DIIS
   @DF-RHF iter  12:  -347.18902729384484   -6.53699e-12   2.71459e-08 DIIS
   @DF-RHF iter  13:  -347.18902729384598   -1.13687e-12   5.64007e-09 DIIS

  ==> Post-Iterations <==

    Orbital Energies [Eh]
    ---------------------

    Doubly Occupied:                                                      

       1A    -20.581709     2A    -20.522782     3A    -11.280889  
       4A    -11.249902     5A    -11.209661     6A    -11.203223  
       7A    -11.199167     8A     -1.383209     9A     -1.333866  
      10A     -1.059444    11A     -0.962239    12A     -0.943821  
      13A     -0.842390    14A     -0.784155    15A     -0.715891  
      16A     -0.675041    17A     -0.645859    18A     -0.636273  
      19A     -0.612997    20A     -0.590685    21A     -0.579505  
      22A     -0.548618    23A     -0.518809    24A     -0.510766  
      25A     -0.495586    26A     -0.468976    27A     -0.464182  
      28A     -0.460322    29A     -0.442663    30A     -0.411418  

    Virtual:                                                              

      31A      0.205055    32A      0.241878    33A      0.268103  
      34A      0.274415    35A      0.290560    36A      0.302719  
      37A      0.306395    38A      0.319472    39A      0.324443  
      40A      0.340227    41A      0.349249    42A      0.360801  
      43A      0.364754    44A      0.378377    45A      0.382202  
      46A      0.419230    47A      0.445444    48A      0.460026  
      49A      0.506682    50A      0.717028    51A      0.750751  
      52A      0.752522    53A      0.758445    54A      0.766331  
      55A      0.777772    56A      0.784139    57A      0.795334  
      58A      0.864887    59A      0.910234    60A      0.938376  
      61A      0.980947    62A      0.996089    63A      1.032446  
      64A      1.055743    65A      1.090716    66A      1.118389  
      67A      1.130353    68A      1.154243    69A      1.161055  
      70A      1.171529    71A      1.180870    72A      1.182572  
      73A      1.193931    74A      1.207386    75A      1.211295  
      76A      1.219047    77A      1.232097    78A      1.246117  
      79A      1.256783    80A      1.268068    81A      1.275440  
      82A      1.331495    83A      1.382822    84A      1.397805  
      85A      1.453611    86A      1.601278    87A      1.635395  
      88A      1.688126    89A      1.690977    90A      1.717158  
      91A      1.756677    92A      1.790482    93A      1.837725  
      94A      1.855189    95A      1.885016    96A      2.024799  
      97A      2.056772    98A      2.082095    99A      2.097457  
     100A      2.175916   101A      2.246620   102A      2.247633  
     103A      2.285876   104A      2.342444   105A      2.363376  
     106A      2.371059   107A      2.389435   108A      2.433398  
     109A      2.465303   110A      2.485184   111A      2.558839  
     112A      2.623610   113A      2.648955   114A      2.682412  
     115A      2.697480   116A      2.728757   117A      2.764279  
     118A      2.801823   119A      2.828237   120A      2.834999  
     121A      2.893649   122A      2.953354   123A      3.021836  
     124A      3.149985   125A      3.165409   126A      3.304725  
     127A      4.196609   128A      4.402817   129A      4.588528  
     130A      4.635727   131A      4.707019   132A      4.818775  
     133A      4.972160  

    Final Occupation by Irrep:
              A 
    DOCC [    30 ]

  Energy converged.

  @DF-RHF Final Energy:  -347.18902729384598

   => Energetics <=

    Nuclear Repulsion Energy =            307.1659799717483565
    One-Electron Energy =               -1082.0419161474844714
    Two-Electron Energy =                 427.6869088818901332
    Total Energy =                       -347.1890272938459816



Properties will be evaluated at   0.000000,   0.000000,   0.000000 [a0]

Properties computed using the SCF density matrix

  Nuclear Dipole Moment: [e a0]
     X:    -2.0411      Y:    -4.2794      Z:    -1.4072

  Electronic Dipole Moment: [e a0]
     X:     2.5667      Y:     5.2692      Z:     1.0885

  Dipole Moment: [e a0]
     X:     0.5256      Y:     0.9898      Z:    -0.3187     Total:     1.1652

  Dipole Moment: [D]
     X:     1.3360      Y:     2.5159      Z:    -0.8101     Total:     2.9615


*** tstop() called on wr86 at Thu Dec  6 16:14:03 2018
Module time:
	user time   =      25.46 seconds =       0.42 minutes
	system time =       1.22 seconds =       0.02 minutes
	total time  =          3 seconds =       0.05 minutes
Total time:
	user time   =      25.46 seconds =       0.42 minutes
	system time =       1.22 seconds =       0.02 minutes
	total time  =          3 seconds =       0.05 minutes

*** tstart() called on wr86
*** at Thu Dec  6 16:14:03 2018


         ------------------------------------------------------------
                                   SCF GRAD                          
                          Rob Parrish, Justin Turney,                
                       Andy Simmonett, and Alex Sokolov              
         ------------------------------------------------------------

  ==> Geometry <==

    Molecular point group: c1
    Full point group: C1

    Geometry (in Angstrom), charge = 0, multiplicity = 1:

       Center              X                  Y                   Z               Mass       
    ------------   -----------------  -----------------  -----------------  -----------------
         C           -0.434924836942    -0.078958077650    -0.130434828770    12.000000000000
         H           -0.001310947147    -0.231601093363    -1.119038504346     1.007825032070
         H           -1.279113873114     0.599837972156    -0.253647215479     1.007825032070
         C           -0.919313365271    -1.405640460436     0.429398085190    12.000000000000
         H           -1.329347309076    -1.229974524736     1.420625720882     1.007825032070
         H           -0.059042113465    -2.057095614610     0.560219950236     1.007825032070
         C           -1.962906610216    -2.086571901225    -0.456780132762    12.000000000000
         H           -1.547022906890    -2.250223749406    -1.449051374379     1.007825032070
         H           -2.815970665889    -1.424007224422    -0.589449513541     1.007825032070
         C           -2.445268515410    -3.420211380921     0.113013301274    12.000000000000
         H           -3.184459950023    -3.881538279235    -0.534796857894     1.007825032070
         H           -2.898821578897    -3.286443529630     1.090934738351     1.007825032070
         H           -1.620851462865    -4.118558912392     0.225262037336     1.007825032070
         O            0.510183969758     0.457301832786     0.750043184907    15.994914619560
         H            0.824236423551     1.288106753352     0.410550450113     1.007825032070
         C            3.050974371662     2.815546621751    -0.448554701270    12.000000000000
         H            3.480110008589     3.662787176179    -0.974254317128     1.007825032070
         H            3.555915434338     2.693068727314     0.504391415907     1.007825032070
         H            3.206291763876     1.924774568417    -1.039204473185     1.007825032070
         O            1.661930295042     2.964300195611    -0.285175256948    15.994914619560
         H            1.480996667642     3.728514863962     0.243999056130     1.007825032070

  Nuclear repulsion =  307.165979971748357

  ==> Basis Set <==

  Basis Set: 6-31G(D)
    Blend: 6-31G(D)
    Number of shells: 70
    Number of basis function: 133
    Number of Cartesian functions: 133
    Spherical Harmonics?: false
    Max angular momentum: 2

  ==> DFJKGrad: Density-Fitted SCF Gradients <==

    Gradient:                    1
    J tasked:                  Yes
    K tasked:                  Yes
    wK tasked:                  No
    OpenMP threads:             16
    Integrals threads:          16
    Memory (MB):             71525
    Schwarz Cutoff:          0E+00
    Fitting Condition:       1E-12

   => Auxiliary Basis Set <=

  Basis Set: (6-31G(D) AUX)
    Blend: CC-PVDZ-JKFIT
    Number of shells: 294
    Number of basis function: 917
    Number of Cartesian functions: 917
    Spherical Harmonics?: false
    Max angular momentum: 3


  -Total Gradient:
     Atom            X                  Y                   Z
    ------   -----------------  -----------------  -----------------
       1        0.000000067905    -0.000000188871     0.000000250001
       2       -0.000000053268     0.000000318605     0.000000516897
       3        0.000000673133    -0.000000181195     0.000000105302
       4       -0.000000128750    -0.000001276825     0.000000947987
       5       -0.000000220749    -0.000000141541    -0.000000589697
       6       -0.000000494402     0.000000068969    -0.000000407169
       7        0.000001011765     0.000001517646     0.000000071632
       8       -0.000000117319    -0.000000320524     0.000000599176
       9        0.000000271980    -0.000000536293     0.000000366449
      10        0.000000300483     0.000000244028     0.000000245333
      11        0.000000282551     0.000000135138     0.000000309698
      12        0.000000127929     0.000000027324    -0.000000585657
      13       -0.000000416711     0.000000393227    -0.000000233268
      14       -0.000000238122     0.000000839820    -0.000003960971
      15       -0.000001607100    -0.000002207613     0.000003243472
      16       -0.000002282660     0.000000783925     0.000001624920
      17        0.000000562970    -0.000000523898     0.000000167915
      18        0.000000289289    -0.000000109186    -0.000000613195
      19       -0.000001005143     0.000000321604     0.000000065786
      20        0.000002394630     0.000002014307    -0.000000915241
      21        0.000000581587    -0.000001178649    -0.000001209370


*** tstop() called on wr86 at Thu Dec  6 16:14:04 2018
Module time:
	user time   =      23.34 seconds =       0.39 minutes
	system time =       0.78 seconds =       0.01 minutes
	total time  =          1 seconds =       0.02 minutes
Total time:
	user time   =      48.83 seconds =       0.81 minutes
	system time =       2.01 seconds =       0.03 minutes
	total time  =          4 seconds =       0.07 minutes

  Based on options and gradient (rms=1.95E-06), recommend projecting translations and projecting rotations.
hessian() will perform frequency computation by finite difference of analytic gradients.

-------------------------------------------------------------

  Using finite-differences of gradients to determine vibrational frequencies and 
  normal modes.  Resulting frequencies are only valid at stationary points.
	Generating geometries for use with 3-point formula.
	Displacement size will be 5.00e-03.
	Number of atoms is 21.
	Number of irreps is 1.
	Number of SALCS is 57.
	Translations projected? 1. Rotations projected? 1.
	Index of salcs per irrep:
	 1 :  0  1  2  3  4  5  6  7  8  9  10  11  12  13  14  15  16  17  18  19  20  21  22  23  24  25  26  27  28  29  30  31  32  33  34  35  36  37  38  39  40  41  42  43  44  45  46  47  48  49  50  51  52  53  54  55  56 
	Number of SALC's per irrep:
		 Irrep 1: 57
	Number of geometries (including reference) is 115.
	Number of displacements per irrep:
	  Irrep 1: 114

  //>>>>>>>>>>>>>>>>>>>>>>>>>>>>>>>>>>>//
  //   Loading displacement 1 of 115   //
  //<<<<<<<<<<<<<<<<<<<<<<<<<<<<<<<<<<<//
gradient() will perform analytic gradient computation.

*** tstart() called on wr86
*** at Thu Dec  6 16:14:04 2018

   => Loading Basis Set <=

    Name: 6-31G(D)
    Role: ORBITAL
    Keyword: BASIS
    atoms 1, 4, 7, 10, 16                     entry C          line   111 file /usr/local/hpc1/software_molmod/psi4/psi4conda/share/psi4/basis/6-31g_d_.gbs 
    atoms 2-3, 5-6, 8-9, 11-13, 15, 17-19, 21 entry H          line    44 file /usr/local/hpc1/software_molmod/psi4/psi4conda/share/psi4/basis/6-31g_d_.gbs 
    atoms 14, 20                              entry O          line   145 file /usr/local/hpc1/software_molmod/psi4/psi4conda/share/psi4/basis/6-31g_d_.gbs 


         ---------------------------------------------------------
                                   SCF
            by Justin Turney, Rob Parrish, Andy Simmonett
                             and Daniel Smith
                              RHF Reference
                       16 Threads,  95367 MiB Core
         ---------------------------------------------------------

  ==> Geometry <==

    Molecular point group: c1
    Full point group: C1

    Geometry (in Angstrom), charge = 0, multiplicity = 1:

       Center              X                  Y                   Z               Mass       
    ------------   -----------------  -----------------  -----------------  -----------------
         C           -0.435643031180    -0.078960308055    -0.130440940410    12.000000000000
         H           -0.001200572199    -0.231614398563    -1.119035772319     1.007825032070
         H           -1.279018826034     0.599832957521    -0.253675081280     1.007825032070
         C           -0.919226256022    -1.405636792643     0.429399893055    12.000000000000
         H           -1.329276542568    -1.229959714099     1.420618793623     1.007825032070
         H           -0.058956106655    -2.057089046988     0.560243447932     1.007825032070
         C           -1.962804071381    -2.086580399485    -0.456787147010    12.000000000000
         H           -1.546904027175    -2.250243393773    -1.449049701499     1.007825032070
         H           -2.815867012031    -1.424018633209    -0.589478232858     1.007825032070
         C           -2.445173128644    -3.420213859404     0.113014322090    12.000000000000
         H           -3.184353340951    -3.881549614264    -0.534802335386     1.007825032070
         H           -2.898742253685    -3.286435091475     1.090926816667     1.007825032070
         H           -1.620756804166    -4.118558767885     0.225284724230     1.007825032070
         O            0.510262969425     0.457311546738     0.750046018768    15.994914619560
         H            0.824319627964     1.288112922276     0.410548498258     1.007825032070
         C            3.051069115083     2.815546058038    -0.448538715101    12.000000000000
         H            3.480211949550     3.662781033684    -0.974241446521     1.007825032070
         H            3.555994921579     2.693080281472     0.504417043380     1.007825032070
         H            3.206397474240     1.924767225812    -1.039175379748     1.007825032070
         O            1.662022157517     2.964299403062    -0.285183556090    15.994914619560
         H            1.481078757525     3.728520079445     0.243978738988     1.007825032070

  Running in c1 symmetry.

  Rotational constants: A =      0.33251  B =      0.01841  C =      0.01829 [cm^-1]
  Rotational constants: A =   9968.51854  B =    552.06466  C =    548.18701 [MHz]
  Nuclear repulsion =  307.162306499735848

  Charge       = 0
  Multiplicity = 1
  Electrons    = 60
  Nalpha       = 30
  Nbeta        = 30

  ==> Algorithm <==

  SCF Algorithm Type is DF.
  DIIS enabled.
  MOM disabled.
  Fractional occupation disabled.
  Guess Type is SAD.
  Energy threshold   = 1.00e-08
  Density threshold  = 1.00e-08
  Integral threshold = 0.00e+00

  ==> Primary Basis <==

  Basis Set: 6-31G(D)
    Blend: 6-31G(D)
    Number of shells: 70
    Number of basis function: 133
    Number of Cartesian functions: 133
    Spherical Harmonics?: false
    Max angular momentum: 2

   => Loading Basis Set <=

    Name: (6-31G(D) AUX)
    Role: JKFIT
    Keyword: DF_BASIS_SCF
    atoms 1, 4, 7, 10, 16                     entry C          line   121 file /usr/local/hpc1/software_molmod/psi4/psi4conda/share/psi4/basis/cc-pvdz-jkfit.gbs 
    atoms 2-3, 5-6, 8-9, 11-13, 15, 17-19, 21 entry H          line    51 file /usr/local/hpc1/software_molmod/psi4/psi4conda/share/psi4/basis/cc-pvdz-jkfit.gbs 
    atoms 14, 20                              entry O          line   221 file /usr/local/hpc1/software_molmod/psi4/psi4conda/share/psi4/basis/cc-pvdz-jkfit.gbs 

  ==> Pre-Iterations <==

   -------------------------------------------------------
    Irrep   Nso     Nmo     Nalpha   Nbeta   Ndocc  Nsocc
   -------------------------------------------------------
     A        133     133       0       0       0       0
   -------------------------------------------------------
    Total     133     133      30      30      30       0
   -------------------------------------------------------

  ==> Integral Setup <==

  ==> DiskDFJK: Density-Fitted J/K Matrices <==

    J tasked:                  Yes
    K tasked:                  Yes
    wK tasked:                  No
    OpenMP threads:             16
    Integrals threads:          16
    Memory (MB):             71525
    Algorithm:                Core
    Integral Cache:           NONE
    Schwarz Cutoff:          1E-12
    Fitting Condition:       1E-12

   => Auxiliary Basis Set <=

  Basis Set: (6-31G(D) AUX)
    Blend: CC-PVDZ-JKFIT
    Number of shells: 294
    Number of basis function: 917
    Number of Cartesian functions: 917
    Spherical Harmonics?: false
    Max angular momentum: 3

  Minimum eigenvalue in the overlap matrix is 3.5453537032E-03.
  Using Symmetric Orthogonalization.

  SCF Guess: Superposition of Atomic Densities via on-the-fly atomic UHF.

  ==> Iterations <==

                           Total Energy        Delta E     RMS |[F,P]|

   @DF-RHF iter   0:  -349.45676862909716   -3.49457e+02   1.48535e-01 
   @DF-RHF iter   1:  -346.99721174897076    2.45956e+00   1.52317e-02 
   @DF-RHF iter   2:  -347.15935175984907   -1.62140e-01   4.74035e-03 DIIS
   @DF-RHF iter   3:  -347.18400585791557   -2.46541e-02   2.48986e-03 DIIS
   @DF-RHF iter   4:  -347.18880705888313   -4.80120e-03   3.19610e-04 DIIS
   @DF-RHF iter   5:  -347.18900508978174   -1.98031e-04   8.88509e-05 DIIS
   @DF-RHF iter   6:  -347.18902442592628   -1.93361e-05   4.12704e-05 DIIS
   @DF-RHF iter   7:  -347.18902630977630   -1.88385e-06   1.13762e-05 DIIS
   @DF-RHF iter   8:  -347.18902652871992   -2.18944e-07   4.29965e-06 DIIS
   @DF-RHF iter   9:  -347.18902654645029   -1.77304e-08   1.16545e-06 DIIS
   @DF-RHF iter  10:  -347.18902654803742   -1.58713e-09   2.39854e-07 DIIS
   @DF-RHF iter  11:  -347.18902654810631   -6.88942e-11   8.06363e-08 DIIS
   @DF-RHF iter  12:  -347.18902654811353   -7.21911e-12   2.28873e-08 DIIS
   @DF-RHF iter  13:  -347.18902654811444   -9.09495e-13   3.64630e-09 DIIS

  ==> Post-Iterations <==

    Orbital Energies [Eh]
    ---------------------

    Doubly Occupied:                                                      

       1A    -20.581690     2A    -20.522713     3A    -11.280874  
       4A    -11.249887     5A    -11.209670     6A    -11.203229  
       7A    -11.199176     8A     -1.383189     9A     -1.333621  
      10A     -1.059486    11A     -0.962284    12A     -0.943805  
      13A     -0.842397    14A     -0.784184    15A     -0.715868  
      16A     -0.674901    17A     -0.645885    18A     -0.636246  
      19A     -0.612975    20A     -0.590672    21A     -0.579470  
      22A     -0.548601    23A     -0.518792    24A     -0.510752  
      25A     -0.495511    26A     -0.468963    27A     -0.464190  
      28A     -0.460332    29A     -0.442753    30A     -0.411461  

    Virtual:                                                              

      31A      0.205069    32A      0.241868    33A      0.268110  
      34A      0.274420    35A      0.290542    36A      0.302713  
      37A      0.306387    38A      0.319485    39A      0.324416  
      40A      0.340220    41A      0.349235    42A      0.360775  
      43A      0.364760    44A      0.378388    45A      0.382171  
      46A      0.419236    47A      0.445421    48A      0.460105  
      49A      0.506557    50A      0.716971    51A      0.750757  
      52A      0.752522    53A      0.758432    54A      0.766310  
      55A      0.777785    56A      0.784141    57A      0.795295  
      58A      0.864786    59A      0.910281    60A      0.938451  
      61A      0.980962    62A      0.996103    63A      1.032435  
      64A      1.055720    65A      1.090797    66A      1.118401  
      67A      1.130391    68A      1.154237    69A      1.161065  
      70A      1.171549    71A      1.180942    72A      1.182621  
      73A      1.193935    74A      1.207381    75A      1.211330  
      76A      1.219088    77A      1.232086    78A      1.246123  
      79A      1.256820    80A      1.268084    81A      1.275428  
      82A      1.331557    83A      1.382893    84A      1.397855  
      85A      1.453615    86A      1.601263    87A      1.635394  
      88A      1.688153    89A      1.690991    90A      1.717162  
      91A      1.756598    92A      1.790490    93A      1.837709  
      94A      1.855202    95A      1.885102    96A      2.024851  
      97A      2.056919    98A      2.082098    99A      2.097475  
     100A      2.175960   101A      2.246604   102A      2.247632  
     103A      2.285837   104A      2.342516   105A      2.363369  
     106A      2.371077   107A      2.389479   108A      2.433414  
     109A      2.465032   110A      2.485000   111A      2.558832  
     112A      2.623747   113A      2.648925   114A      2.682424  
     115A      2.697233   116A      2.728773   117A      2.764502  
     118A      2.801845   119A      2.827830   120A      2.834965  
     121A      2.893647   122A      2.953354   123A      3.021681  
     124A      3.150003   125A      3.165347   126A      3.304642  
     127A      4.196589   128A      4.402661   129A      4.588601  
     130A      4.635741   131A      4.707106   132A      4.818761  
     133A      4.972222  

    Final Occupation by Irrep:
              A 
    DOCC [    30 ]

  Energy converged.

  @DF-RHF Final Energy:  -347.18902654811444

   => Energetics <=

    Nuclear Repulsion Energy =            307.1623064997358483
    One-Electron Energy =               -1082.0355104767365901
    Two-Electron Energy =                 427.6841774288862439
    Total Energy =                       -347.1890265481144411



Properties will be evaluated at   0.000000,   0.000000,   0.000000 [a0]

Properties computed using the SCF density matrix

  Nuclear Dipole Moment: [e a0]
     X:    -2.0399      Y:    -4.2794      Z:    -1.4072

  Electronic Dipole Moment: [e a0]
     X:     2.5643      Y:     5.2690      Z:     1.0882

  Dipole Moment: [e a0]
     X:     0.5245      Y:     0.9896      Z:    -0.3189     Total:     1.1645

  Dipole Moment: [D]
     X:     1.3331      Y:     2.5153      Z:    -0.8107     Total:     2.9599


*** tstop() called on wr86 at Thu Dec  6 16:14:07 2018
Module time:
	user time   =      26.25 seconds =       0.44 minutes
	system time =       0.67 seconds =       0.01 minutes
	total time  =          3 seconds =       0.05 minutes
Total time:
	user time   =      75.33 seconds =       1.26 minutes
	system time =       2.70 seconds =       0.05 minutes
	total time  =          7 seconds =       0.12 minutes

*** tstart() called on wr86
*** at Thu Dec  6 16:14:07 2018


         ------------------------------------------------------------
                                   SCF GRAD                          
                          Rob Parrish, Justin Turney,                
                       Andy Simmonett, and Alex Sokolov              
         ------------------------------------------------------------

  ==> Geometry <==

    Molecular point group: c1
    Full point group: C1

    Geometry (in Angstrom), charge = 0, multiplicity = 1:

       Center              X                  Y                   Z               Mass       
    ------------   -----------------  -----------------  -----------------  -----------------
         C           -0.435643031180    -0.078960308055    -0.130440940410    12.000000000000
         H           -0.001200572199    -0.231614398563    -1.119035772319     1.007825032070
         H           -1.279018826034     0.599832957521    -0.253675081280     1.007825032070
         C           -0.919226256022    -1.405636792643     0.429399893055    12.000000000000
         H           -1.329276542568    -1.229959714099     1.420618793623     1.007825032070
         H           -0.058956106655    -2.057089046988     0.560243447932     1.007825032070
         C           -1.962804071381    -2.086580399485    -0.456787147010    12.000000000000
         H           -1.546904027175    -2.250243393773    -1.449049701499     1.007825032070
         H           -2.815867012031    -1.424018633209    -0.589478232858     1.007825032070
         C           -2.445173128644    -3.420213859404     0.113014322090    12.000000000000
         H           -3.184353340951    -3.881549614264    -0.534802335386     1.007825032070
         H           -2.898742253685    -3.286435091475     1.090926816667     1.007825032070
         H           -1.620756804166    -4.118558767885     0.225284724230     1.007825032070
         O            0.510262969425     0.457311546738     0.750046018768    15.994914619560
         H            0.824319627964     1.288112922276     0.410548498258     1.007825032070
         C            3.051069115083     2.815546058038    -0.448538715101    12.000000000000
         H            3.480211949550     3.662781033684    -0.974241446521     1.007825032070
         H            3.555994921579     2.693080281472     0.504417043380     1.007825032070
         H            3.206397474240     1.924767225812    -1.039175379748     1.007825032070
         O            1.662022157517     2.964299403062    -0.285183556090    15.994914619560
         H            1.481078757525     3.728520079445     0.243978738988     1.007825032070

  Nuclear repulsion =  307.162306499735848

  ==> Basis Set <==

  Basis Set: 6-31G(D)
    Blend: 6-31G(D)
    Number of shells: 70
    Number of basis function: 133
    Number of Cartesian functions: 133
    Spherical Harmonics?: false
    Max angular momentum: 2

  ==> DFJKGrad: Density-Fitted SCF Gradients <==

    Gradient:                    1
    J tasked:                  Yes
    K tasked:                  Yes
    wK tasked:                  No
    OpenMP threads:             16
    Integrals threads:          16
    Memory (MB):             71525
    Schwarz Cutoff:          0E+00
    Fitting Condition:       1E-12

   => Auxiliary Basis Set <=

  Basis Set: (6-31G(D) AUX)
    Blend: CC-PVDZ-JKFIT
    Number of shells: 294
    Number of basis function: 917
    Number of Cartesian functions: 917
    Spherical Harmonics?: false
    Max angular momentum: 3


  -Total Gradient:
     Atom            X                  Y                   Z
    ------   -----------------  -----------------  -----------------
       1       -0.000971841674     0.000056944515     0.000033477624
       2        0.000181906222    -0.000028152478    -0.000157024238
       3        0.000325421764    -0.000198436498     0.000012489744
       4        0.000160469332     0.000049774172    -0.000036389565
       5        0.000007321610     0.000023915908    -0.000010384923
       6       -0.000014840121    -0.000046781609     0.000021279860
       7        0.000014925836     0.000036188236    -0.000013943987
       8       -0.000001491014    -0.000001979579    -0.000001035616
       9        0.000001479968     0.000000250709    -0.000000136561
      10        0.000005313818     0.000001072227     0.000004476491
      11        0.000000050418     0.000001920284    -0.000000272514
      12       -0.000000041714    -0.000000201464    -0.000000282334
      13       -0.000000941324     0.000000575198    -0.000000058648
      14        0.000274294924     0.000101065251     0.000123644678
      15        0.000018446907     0.000006799514     0.000023485297
      16        0.000000063946     0.000001234516     0.000001149555
      17        0.000000025832    -0.000001054160     0.000000377871
      18        0.000000286749     0.000000031477    -0.000000585026
      19       -0.000000635207     0.000000456612    -0.000000422422
      20        0.000000415464    -0.000003101392     0.000001825771
      21       -0.000000631743    -0.000000521437    -0.000001671057


*** tstop() called on wr86 at Thu Dec  6 16:14:08 2018
Module time:
	user time   =      21.97 seconds =       0.37 minutes
	system time =       0.77 seconds =       0.01 minutes
	total time  =          1 seconds =       0.02 minutes
Total time:
	user time   =      97.32 seconds =       1.62 minutes
	system time =       3.48 seconds =       0.06 minutes
	total time  =          8 seconds =       0.13 minutes

  //>>>>>>>>>>>>>>>>>>>>>>>>>>>>>>>>>>>//
  //   Loading displacement 2 of 115   //
  //<<<<<<<<<<<<<<<<<<<<<<<<<<<<<<<<<<<//
gradient() will perform analytic gradient computation.

*** tstart() called on wr86
*** at Thu Dec  6 16:14:08 2018

   => Loading Basis Set <=

    Name: 6-31G(D)
    Role: ORBITAL
    Keyword: BASIS
    atoms 1, 4, 7, 10, 16                     entry C          line   111 file /usr/local/hpc1/software_molmod/psi4/psi4conda/share/psi4/basis/6-31g_d_.gbs 
    atoms 2-3, 5-6, 8-9, 11-13, 15, 17-19, 21 entry H          line    44 file /usr/local/hpc1/software_molmod/psi4/psi4conda/share/psi4/basis/6-31g_d_.gbs 
    atoms 14, 20                              entry O          line   145 file /usr/local/hpc1/software_molmod/psi4/psi4conda/share/psi4/basis/6-31g_d_.gbs 


         ---------------------------------------------------------
                                   SCF
            by Justin Turney, Rob Parrish, Andy Simmonett
                             and Daniel Smith
                              RHF Reference
                       16 Threads,  95367 MiB Core
         ---------------------------------------------------------

  ==> Geometry <==

    Molecular point group: c1
    Full point group: C1

    Geometry (in Angstrom), charge = 0, multiplicity = 1:

       Center              X                  Y                   Z               Mass       
    ------------   -----------------  -----------------  -----------------  -----------------
         C           -0.434206642704    -0.078955847245    -0.130428717130    12.000000000000
         H           -0.001421322095    -0.231587788163    -1.119041236373     1.007825032070
         H           -1.279208920194     0.599842986791    -0.253619349678     1.007825032070
         C           -0.919400474519    -1.405644128229     0.429396277325    12.000000000000
         H           -1.329418075584    -1.229989335373     1.420632648141     1.007825032070
         H           -0.059128120275    -2.057102182232     0.560196452540     1.007825032070
         C           -1.963009149051    -2.086563402965    -0.456773118515    12.000000000000
         H           -1.547141786605    -2.250204105039    -1.449053047259     1.007825032070
         H           -2.816074319747    -1.423995815635    -0.589420794224     1.007825032070
         C           -2.445363902176    -3.420208902438     0.113012280458    12.000000000000
         H           -3.184566559095    -3.881526944206    -0.534791380402     1.007825032070
         H           -2.898900904108    -3.286451967785     1.090942660035     1.007825032070
         H           -1.620946121563    -4.118559056899     0.225239350441     1.007825032070
         O            0.510104970091     0.457292118834     0.750040351046    15.994914619560
         H            0.824153219138     1.288100584428     0.410552401968     1.007825032070
         C            3.050879628241     2.815547185464    -0.448570687439    12.000000000000
         H            3.480008067629     3.662793318674    -0.974267187736     1.007825032070
         H            3.555835947097     2.693057173156     0.504365788434     1.007825032070
         H            3.206186053512     1.924781911022    -1.039233566623     1.007825032070
         O            1.661838432567     2.964300988160    -0.285166957806    15.994914619560
         H            1.480914577759     3.728509648479     0.244019373272     1.007825032070

  Running in c1 symmetry.

  Rotational constants: A =      0.33257  B =      0.01842  C =      0.01829 [cm^-1]
  Rotational constants: A =   9970.27879  B =    552.07207  C =    548.19455 [MHz]
  Nuclear repulsion =  307.169653825025250

  Charge       = 0
  Multiplicity = 1
  Electrons    = 60
  Nalpha       = 30
  Nbeta        = 30

  ==> Algorithm <==

  SCF Algorithm Type is DF.
  DIIS enabled.
  MOM disabled.
  Fractional occupation disabled.
  Guess Type is SAD.
  Energy threshold   = 1.00e-08
  Density threshold  = 1.00e-08
  Integral threshold = 0.00e+00

  ==> Primary Basis <==

  Basis Set: 6-31G(D)
    Blend: 6-31G(D)
    Number of shells: 70
    Number of basis function: 133
    Number of Cartesian functions: 133
    Spherical Harmonics?: false
    Max angular momentum: 2

   => Loading Basis Set <=

    Name: (6-31G(D) AUX)
    Role: JKFIT
    Keyword: DF_BASIS_SCF
    atoms 1, 4, 7, 10, 16                     entry C          line   121 file /usr/local/hpc1/software_molmod/psi4/psi4conda/share/psi4/basis/cc-pvdz-jkfit.gbs 
    atoms 2-3, 5-6, 8-9, 11-13, 15, 17-19, 21 entry H          line    51 file /usr/local/hpc1/software_molmod/psi4/psi4conda/share/psi4/basis/cc-pvdz-jkfit.gbs 
    atoms 14, 20                              entry O          line   221 file /usr/local/hpc1/software_molmod/psi4/psi4conda/share/psi4/basis/cc-pvdz-jkfit.gbs 

  ==> Pre-Iterations <==

   -------------------------------------------------------
    Irrep   Nso     Nmo     Nalpha   Nbeta   Ndocc  Nsocc
   -------------------------------------------------------
     A        133     133       0       0       0       0
   -------------------------------------------------------
    Total     133     133      30      30      30       0
   -------------------------------------------------------

  ==> Integral Setup <==

  ==> DiskDFJK: Density-Fitted J/K Matrices <==

    J tasked:                  Yes
    K tasked:                  Yes
    wK tasked:                  No
    OpenMP threads:             16
    Integrals threads:          16
    Memory (MB):             71525
    Algorithm:                Core
    Integral Cache:           NONE
    Schwarz Cutoff:          1E-12
    Fitting Condition:       1E-12

   => Auxiliary Basis Set <=

  Basis Set: (6-31G(D) AUX)
    Blend: CC-PVDZ-JKFIT
    Number of shells: 294
    Number of basis function: 917
    Number of Cartesian functions: 917
    Spherical Harmonics?: false
    Max angular momentum: 3

  Minimum eigenvalue in the overlap matrix is 3.5470777119E-03.
  Using Symmetric Orthogonalization.

  SCF Guess: Superposition of Atomic Densities via on-the-fly atomic UHF.

  ==> Iterations <==

                           Total Energy        Delta E     RMS |[F,P]|

   @DF-RHF iter   0:  -349.88637238538320   -3.49886e+02   1.09308e-01 
   @DF-RHF iter   1:  -346.98158323853443    2.90479e+00   1.65607e-02 
   @DF-RHF iter   2:  -347.16090156738022   -1.79318e-01   6.73810e-03 DIIS
   @DF-RHF iter   3:  -347.18441253601532   -2.35110e-02   2.01410e-03 DIIS
   @DF-RHF iter   4:  -347.18874133133710   -4.32880e-03   4.27571e-04 DIIS
   @DF-RHF iter   5:  -347.18899722527897   -2.55894e-04   1.17635e-04 DIIS
   @DF-RHF iter   6:  -347.18902456618241   -2.73409e-05   3.23638e-05 DIIS
   @DF-RHF iter   7:  -347.18902640431941   -1.83814e-06   6.26118e-06 DIIS
   @DF-RHF iter   8:  -347.18902653274188   -1.28422e-07   2.76016e-06 DIIS
   @DF-RHF iter   9:  -347.18902654657660   -1.38347e-08   1.05748e-06 DIIS
   @DF-RHF iter  10:  -347.18902654800445   -1.42785e-09   1.95398e-07 DIIS
   @DF-RHF iter  11:  -347.18902654807874   -7.42943e-11   6.13114e-08 DIIS
   @DF-RHF iter  12:  -347.18902654808676   -8.01492e-12   1.78438e-08 DIIS
   @DF-RHF iter  13:  -347.18902654808738   -6.25278e-13   5.37255e-09 DIIS

  ==> Post-Iterations <==

    Orbital Energies [Eh]
    ---------------------

    Doubly Occupied:                                                      

       1A    -20.581729     2A    -20.522852     3A    -11.280904  
       4A    -11.249917     5A    -11.209652     6A    -11.203216  
       7A    -11.199158     8A     -1.383229     9A     -1.334110  
      10A     -1.059402    11A     -0.962194    12A     -0.943837  
      13A     -0.842383    14A     -0.784126    15A     -0.715915  
      16A     -0.675181    17A     -0.645833    18A     -0.636300  
      19A     -0.613020    20A     -0.590698    21A     -0.579540  
      22A     -0.548636    23A     -0.518825    24A     -0.510781  
      25A     -0.495661    26A     -0.468989    27A     -0.464174  
      28A     -0.460313    29A     -0.442573    30A     -0.411375  

    Virtual:                                                              

      31A      0.205040    32A      0.241888    33A      0.268096  
      34A      0.274410    35A      0.290579    36A      0.302725  
      37A      0.306404    38A      0.319460    39A      0.324470  
      40A      0.340234    41A      0.349263    42A      0.360828  
      43A      0.364748    44A      0.378367    45A      0.382233  
      46A      0.419224    47A      0.445467    48A      0.459947  
      49A      0.506807    50A      0.717086    51A      0.750745  
      52A      0.752522    53A      0.758459    54A      0.766352  
      55A      0.777758    56A      0.784137    57A      0.795373  
      58A      0.864988    59A      0.910186    60A      0.938302  
      61A      0.980931    62A      0.996075    63A      1.032457  
      64A      1.055765    65A      1.090634    66A      1.118378  
      67A      1.130312    68A      1.154249    69A      1.161045  
      70A      1.171509    71A      1.180796    72A      1.182522  
      73A      1.193928    74A      1.207390    75A      1.211259  
      76A      1.219010    77A      1.232109    78A      1.246111  
      79A      1.256747    80A      1.268053    81A      1.275451  
      82A      1.331434    83A      1.382752    84A      1.397755  
      85A      1.453608    86A      1.601292    87A      1.635396  
      88A      1.688100    89A      1.690963    90A      1.717154  
      91A      1.756756    92A      1.790475    93A      1.837742  
      94A      1.855175    95A      1.884931    96A      2.024746  
      97A      2.056624    98A      2.082092    99A      2.097440  
     100A      2.175872   101A      2.246620   102A      2.247648  
     103A      2.285915   104A      2.342371   105A      2.363384  
     106A      2.371041   107A      2.389391   108A      2.433381  
     109A      2.465567   110A      2.485373   111A      2.558845  
     112A      2.623472   113A      2.648986   114A      2.682401  
     115A      2.697728   116A      2.728741   117A      2.764056  
     118A      2.801801   119A      2.828644   120A      2.835037  
     121A      2.893652   122A      2.953355   123A      3.021990  
     124A      3.149967   125A      3.165471   126A      3.304808  
     127A      4.196629   128A      4.402973   129A      4.588455  
     130A      4.635712   131A      4.706932   132A      4.818790  
     133A      4.972097  

    Final Occupation by Irrep:
              A 
    DOCC [    30 ]

  Energy converged.

  @DF-RHF Final Energy:  -347.18902654808738

   => Energetics <=

    Nuclear Repulsion Energy =            307.1696538250252502
    One-Electron Energy =               -1082.0483177939472625
    Two-Electron Energy =                 427.6896374208345719
    Total Energy =                       -347.1890265480873836



Properties will be evaluated at   0.000000,   0.000000,   0.000000 [a0]

Properties computed using the SCF density matrix

  Nuclear Dipole Moment: [e a0]
     X:    -2.0423      Y:    -4.2794      Z:    -1.4072

  Electronic Dipole Moment: [e a0]
     X:     2.5691      Y:     5.2694      Z:     1.0888

  Dipole Moment: [e a0]
     X:     0.5268      Y:     0.9901      Z:    -0.3185     Total:     1.1658

  Dipole Moment: [D]
     X:     1.3390      Y:     2.5165      Z:    -0.8095     Total:     2.9632


*** tstop() called on wr86 at Thu Dec  6 16:14:11 2018
Module time:
	user time   =      26.77 seconds =       0.45 minutes
	system time =       0.66 seconds =       0.01 minutes
	total time  =          3 seconds =       0.05 minutes
Total time:
	user time   =     124.27 seconds =       2.07 minutes
	system time =       4.14 seconds =       0.07 minutes
	total time  =         11 seconds =       0.18 minutes

*** tstart() called on wr86
*** at Thu Dec  6 16:14:11 2018


         ------------------------------------------------------------
                                   SCF GRAD                          
                          Rob Parrish, Justin Turney,                
                       Andy Simmonett, and Alex Sokolov              
         ------------------------------------------------------------

  ==> Geometry <==

    Molecular point group: c1
    Full point group: C1

    Geometry (in Angstrom), charge = 0, multiplicity = 1:

       Center              X                  Y                   Z               Mass       
    ------------   -----------------  -----------------  -----------------  -----------------
         C           -0.434206642704    -0.078955847245    -0.130428717130    12.000000000000
         H           -0.001421322095    -0.231587788163    -1.119041236373     1.007825032070
         H           -1.279208920194     0.599842986791    -0.253619349678     1.007825032070
         C           -0.919400474519    -1.405644128229     0.429396277325    12.000000000000
         H           -1.329418075584    -1.229989335373     1.420632648141     1.007825032070
         H           -0.059128120275    -2.057102182232     0.560196452540     1.007825032070
         C           -1.963009149051    -2.086563402965    -0.456773118515    12.000000000000
         H           -1.547141786605    -2.250204105039    -1.449053047259     1.007825032070
         H           -2.816074319747    -1.423995815635    -0.589420794224     1.007825032070
         C           -2.445363902176    -3.420208902438     0.113012280458    12.000000000000
         H           -3.184566559095    -3.881526944206    -0.534791380402     1.007825032070
         H           -2.898900904108    -3.286451967785     1.090942660035     1.007825032070
         H           -1.620946121563    -4.118559056899     0.225239350441     1.007825032070
         O            0.510104970091     0.457292118834     0.750040351046    15.994914619560
         H            0.824153219138     1.288100584428     0.410552401968     1.007825032070
         C            3.050879628241     2.815547185464    -0.448570687439    12.000000000000
         H            3.480008067629     3.662793318674    -0.974267187736     1.007825032070
         H            3.555835947097     2.693057173156     0.504365788434     1.007825032070
         H            3.206186053512     1.924781911022    -1.039233566623     1.007825032070
         O            1.661838432567     2.964300988160    -0.285166957806    15.994914619560
         H            1.480914577759     3.728509648479     0.244019373272     1.007825032070

  Nuclear repulsion =  307.169653825025250

  ==> Basis Set <==

  Basis Set: 6-31G(D)
    Blend: 6-31G(D)
    Number of shells: 70
    Number of basis function: 133
    Number of Cartesian functions: 133
    Spherical Harmonics?: false
    Max angular momentum: 2

  ==> DFJKGrad: Density-Fitted SCF Gradients <==

    Gradient:                    1
    J tasked:                  Yes
    K tasked:                  Yes
    wK tasked:                  No
    OpenMP threads:             16
    Integrals threads:          16
    Memory (MB):             71525
    Schwarz Cutoff:          0E+00
    Fitting Condition:       1E-12

   => Auxiliary Basis Set <=

  Basis Set: (6-31G(D) AUX)
    Blend: CC-PVDZ-JKFIT
    Number of shells: 294
    Number of basis function: 917
    Number of Cartesian functions: 917
    Spherical Harmonics?: false
    Max angular momentum: 3


  -Total Gradient:
     Atom            X                  Y                   Z
    ------   -----------------  -----------------  -----------------
       1        0.000971406230    -0.000055707867    -0.000032670944
       2       -0.000181927805     0.000028757712     0.000158286418
       3       -0.000322943339     0.000196886658    -0.000012034946
       4       -0.000160646138    -0.000052252656     0.000038252087
       5       -0.000007762740    -0.000024184909     0.000009176788
       6        0.000013832192     0.000046912283    -0.000022086773
       7       -0.000012894743    -0.000033107120     0.000014092912
       8        0.000001255368     0.000001332965     0.000002223849
       9       -0.000000935779    -0.000001325843     0.000000865324
      10       -0.000004720570    -0.000000588531    -0.000003974077
      11        0.000000519202    -0.000001646624     0.000000894297
      12        0.000000300636     0.000000254902    -0.000000897577
      13        0.000000106037     0.000000212741    -0.000000409472
      14       -0.000275447786    -0.000099856743    -0.000132250982
      15       -0.000021697117    -0.000011261516    -0.000017032644
      16       -0.000004615798     0.000000316633     0.000002107554
      17        0.000001091794     0.000000009170    -0.000000041005
      18        0.000000293025    -0.000000249783    -0.000000644989
      19       -0.000001375188     0.000000191021     0.000000556869
      20        0.000004363781     0.000007157442    -0.000003681666
      21        0.000001798732    -0.000001849934    -0.000000731025


*** tstop() called on wr86 at Thu Dec  6 16:14:12 2018
Module time:
	user time   =      22.92 seconds =       0.38 minutes
	system time =       0.71 seconds =       0.01 minutes
	total time  =          1 seconds =       0.02 minutes
Total time:
	user time   =     147.21 seconds =       2.45 minutes
	system time =       4.85 seconds =       0.08 minutes
	total time  =         12 seconds =       0.20 minutes

  //>>>>>>>>>>>>>>>>>>>>>>>>>>>>>>>>>>>//
  //   Loading displacement 3 of 115   //
  //<<<<<<<<<<<<<<<<<<<<<<<<<<<<<<<<<<<//
gradient() will perform analytic gradient computation.

*** tstart() called on wr86
*** at Thu Dec  6 16:14:12 2018

   => Loading Basis Set <=

    Name: 6-31G(D)
    Role: ORBITAL
    Keyword: BASIS
    atoms 1, 4, 7, 10, 16                     entry C          line   111 file /usr/local/hpc1/software_molmod/psi4/psi4conda/share/psi4/basis/6-31g_d_.gbs 
    atoms 2-3, 5-6, 8-9, 11-13, 15, 17-19, 21 entry H          line    44 file /usr/local/hpc1/software_molmod/psi4/psi4conda/share/psi4/basis/6-31g_d_.gbs 
    atoms 14, 20                              entry O          line   145 file /usr/local/hpc1/software_molmod/psi4/psi4conda/share/psi4/basis/6-31g_d_.gbs 


         ---------------------------------------------------------
                                   SCF
            by Justin Turney, Rob Parrish, Andy Simmonett
                             and Daniel Smith
                              RHF Reference
                       16 Threads,  95367 MiB Core
         ---------------------------------------------------------

  ==> Geometry <==

    Molecular point group: c1
    Full point group: C1

    Geometry (in Angstrom), charge = 0, multiplicity = 1:

       Center              X                  Y                   Z               Mass       
    ------------   -----------------  -----------------  -----------------  -----------------
         C           -0.434924836942    -0.079675419975    -0.130429747896    12.000000000000
         H           -0.001328085482    -0.231495051677    -1.119041394452     1.007825032070
         H           -1.279114517982     0.599939925288    -0.253621823831     1.007825032070
         C           -0.919315112758    -1.405548993660     0.429393268829    12.000000000000
         H           -1.329334285122    -1.229893330360     1.420628835397     1.007825032070
         H           -0.059045490463    -2.057010354511     0.560194941905     1.007825032070
         C           -1.962924342937    -2.086463769583    -0.456778929509    12.000000000000
         H           -1.547055361887    -2.250105363292    -1.449058032805     1.007825032070
         H           -2.815986735957    -1.423892901137    -0.589428079433     1.007825032070
         C           -2.445285367789    -3.420107845669     0.113004491630    12.000000000000
         H           -3.184488294515    -3.881422687392    -0.534801140221     1.007825032070
         H           -2.898824067890    -3.286349868807     1.090933941047     1.007825032070
         H           -1.620870452842    -4.118461160368     0.225232947451     1.007825032070
         O            0.510196582237     0.457381689305     0.750041804445    15.994914619560
         H            0.824248703550     1.288189207083     0.410555117967     1.007825032070
         C            3.050982760085     2.815628050886    -0.448561941770    12.000000000000
         H            3.480115551906     3.662872930352    -0.974256909706     1.007825032070
         H            3.555936478028     2.693135510735     0.504375587365     1.007825032070
         H            3.206287180003     1.924862590861    -1.039225068398     1.007825032070
         O            1.661941753722     2.964386942091    -0.285161235601    15.994914619560
         H            1.481019568896     3.728595925030     0.244025200556     1.007825032070

  Running in c1 symmetry.

  Rotational constants: A =      0.33257  B =      0.01841  C =      0.01829 [cm^-1]
  Rotational constants: A =   9970.08161  B =    552.06645  C =    548.18880 [MHz]
  Nuclear repulsion =  307.168599416551217

  Charge       = 0
  Multiplicity = 1
  Electrons    = 60
  Nalpha       = 30
  Nbeta        = 30

  ==> Algorithm <==

  SCF Algorithm Type is DF.
  DIIS enabled.
  MOM disabled.
  Fractional occupation disabled.
  Guess Type is SAD.
  Energy threshold   = 1.00e-08
  Density threshold  = 1.00e-08
  Integral threshold = 0.00e+00

  ==> Primary Basis <==

  Basis Set: 6-31G(D)
    Blend: 6-31G(D)
    Number of shells: 70
    Number of basis function: 133
    Number of Cartesian functions: 133
    Spherical Harmonics?: false
    Max angular momentum: 2

   => Loading Basis Set <=

    Name: (6-31G(D) AUX)
    Role: JKFIT
    Keyword: DF_BASIS_SCF
    atoms 1, 4, 7, 10, 16                     entry C          line   121 file /usr/local/hpc1/software_molmod/psi4/psi4conda/share/psi4/basis/cc-pvdz-jkfit.gbs 
    atoms 2-3, 5-6, 8-9, 11-13, 15, 17-19, 21 entry H          line    51 file /usr/local/hpc1/software_molmod/psi4/psi4conda/share/psi4/basis/cc-pvdz-jkfit.gbs 
    atoms 14, 20                              entry O          line   221 file /usr/local/hpc1/software_molmod/psi4/psi4conda/share/psi4/basis/cc-pvdz-jkfit.gbs 

  ==> Pre-Iterations <==

   -------------------------------------------------------
    Irrep   Nso     Nmo     Nalpha   Nbeta   Ndocc  Nsocc
   -------------------------------------------------------
     A        133     133       0       0       0       0
   -------------------------------------------------------
    Total     133     133      30      30      30       0
   -------------------------------------------------------

  ==> Integral Setup <==

  ==> DiskDFJK: Density-Fitted J/K Matrices <==

    J tasked:                  Yes
    K tasked:                  Yes
    wK tasked:                  No
    OpenMP threads:             16
    Integrals threads:          16
    Memory (MB):             71525
    Algorithm:                Core
    Integral Cache:           NONE
    Schwarz Cutoff:          1E-12
    Fitting Condition:       1E-12

   => Auxiliary Basis Set <=

  Basis Set: (6-31G(D) AUX)
    Blend: CC-PVDZ-JKFIT
    Number of shells: 294
    Number of basis function: 917
    Number of Cartesian functions: 917
    Spherical Harmonics?: false
    Max angular momentum: 3

  Minimum eigenvalue in the overlap matrix is 3.5436183569E-03.
  Using Symmetric Orthogonalization.

  SCF Guess: Superposition of Atomic Densities via on-the-fly atomic UHF.

  ==> Iterations <==

                           Total Energy        Delta E     RMS |[F,P]|

   @DF-RHF iter   0:  -349.50536829446838   -3.49505e+02   1.32238e-01 
   @DF-RHF iter   1:  -347.01054798270428    2.49482e+00   1.20636e-02 
   @DF-RHF iter   2:  -347.17001817610674   -1.59470e-01   4.48518e-03 DIIS
   @DF-RHF iter   3:  -347.18605390914860   -1.60357e-02   1.21054e-03 DIIS
   @DF-RHF iter   4:  -347.18879022880219   -2.73632e-03   3.31434e-04 DIIS
   @DF-RHF iter   5:  -347.18900249591638   -2.12267e-04   1.41810e-04 DIIS
   @DF-RHF iter   6:  -347.18902417796374   -2.16820e-05   3.08439e-05 DIIS
   @DF-RHF iter   7:  -347.18902639530381   -2.21734e-06   8.58988e-06 DIIS
   @DF-RHF iter   8:  -347.18902655085765   -1.55554e-07   2.78107e-06 DIIS
   @DF-RHF iter   9:  -347.18902655969885   -8.84120e-09   6.09725e-07 DIIS
   @DF-RHF iter  10:  -347.18902656056417   -8.65327e-10   1.96198e-07 DIIS
   @DF-RHF iter  11:  -347.18902656061164   -4.74643e-11   4.09058e-08 DIIS
   @DF-RHF iter  12:  -347.18902656061522   -3.58114e-12   2.14910e-08 DIIS
   @DF-RHF iter  13:  -347.18902656061584   -6.25278e-13   5.27170e-09 DIIS

  ==> Post-Iterations <==

    Orbital Energies [Eh]
    ---------------------

    Doubly Occupied:                                                      

       1A    -20.581697     2A    -20.522725     3A    -11.280880  
       4A    -11.249922     5A    -11.209686     6A    -11.203238  
       7A    -11.199167     8A     -1.383196     9A     -1.333712  
      10A     -1.059527    11A     -0.962334    12A     -0.943811  
      13A     -0.842372    14A     -0.784169    15A     -0.715877  
      16A     -0.674970    17A     -0.645868    18A     -0.636260  
      19A     -0.612985    20A     -0.590638    21A     -0.579556  
      22A     -0.548624    23A     -0.518800    24A     -0.510749  
      25A     -0.495506    26A     -0.468984    27A     -0.464192  
      28A     -0.460342    29A     -0.442830    30A     -0.411345  

    Virtual:                                                              

      31A      0.205063    32A      0.241876    33A      0.268107  
      34A      0.274395    35A      0.290515    36A      0.302721  
      37A      0.306369    38A      0.319479    39A      0.324410  
      40A      0.340219    41A      0.349234    42A      0.360721  
      43A      0.364755    44A      0.378372    45A      0.382200  
      46A      0.419246    47A      0.445438    48A      0.460252  
      49A      0.506622    50A      0.716964    51A      0.750758  
      52A      0.752582    53A      0.758425    54A      0.766280  
      55A      0.777778    56A      0.784146    57A      0.795332  
      58A      0.864903    59A      0.910288    60A      0.938547  
      61A      0.980957    62A      0.996092    63A      1.032409  
      64A      1.055768    65A      1.090769    66A      1.118397  
      67A      1.130219    68A      1.154283    69A      1.161065  
      70A      1.171532    71A      1.180762    72A      1.182618  
      73A      1.193914    74A      1.207362    75A      1.211297  
      76A      1.218988    77A      1.232025    78A      1.246121  
      79A      1.256796    80A      1.268101    81A      1.275384  
      82A      1.331508    83A      1.382883    84A      1.397836  
      85A      1.453623    86A      1.601357    87A      1.635385  
      88A      1.688110    89A      1.690981    90A      1.717164  
      91A      1.756716    92A      1.790516    93A      1.837721  
      94A      1.855203    95A      1.885171    96A      2.024801  
      97A      2.056808    98A      2.082057    99A      2.097481  
     100A      2.176026   101A      2.246846   102A      2.247542  
     103A      2.285762   104A      2.342666   105A      2.363266  
     106A      2.371075   107A      2.389285   108A      2.433408  
     109A      2.465173   110A      2.485078   111A      2.558980  
     112A      2.623723   113A      2.648905   114A      2.682417  
     115A      2.697281   116A      2.728767   117A      2.764519  
     118A      2.801834   119A      2.828032   120A      2.834950  
     121A      2.893774   122A      2.953424   123A      3.021966  
     124A      3.149998   125A      3.165690   126A      3.304719  
     127A      4.196613   128A      4.402768   129A      4.588632  
     130A      4.635735   131A      4.707113   132A      4.818706  
     133A      4.972239  

    Final Occupation by Irrep:
              A 
    DOCC [    30 ]

  Energy converged.

  @DF-RHF Final Energy:  -347.18902656061584

   => Energetics <=

    Nuclear Repulsion Energy =            307.1685994165512170
    One-Electron Energy =               -1082.0473253541495069
    Two-Electron Energy =                 427.6896993769825031
    Total Energy =                       -347.1890265606158437



Properties will be evaluated at   0.000000,   0.000000,   0.000000 [a0]

Properties computed using the SCF density matrix

  Nuclear Dipole Moment: [e a0]
     X:    -2.0412      Y:    -4.2781      Z:    -1.4072

  Electronic Dipole Moment: [e a0]
     X:     2.5665      Y:     5.2670      Z:     1.0883

  Dipole Moment: [e a0]
     X:     0.5254      Y:     0.9889      Z:    -0.3190     Total:     1.1643

  Dipole Moment: [D]
     X:     1.3353      Y:     2.5135      Z:    -0.8108     Total:     2.9594


*** tstop() called on wr86 at Thu Dec  6 16:14:15 2018
Module time:
	user time   =      25.56 seconds =       0.43 minutes
	system time =       0.67 seconds =       0.01 minutes
	total time  =          3 seconds =       0.05 minutes
Total time:
	user time   =     172.95 seconds =       2.88 minutes
	system time =       5.53 seconds =       0.09 minutes
	total time  =         15 seconds =       0.25 minutes

*** tstart() called on wr86
*** at Thu Dec  6 16:14:15 2018


         ------------------------------------------------------------
                                   SCF GRAD                          
                          Rob Parrish, Justin Turney,                
                       Andy Simmonett, and Alex Sokolov              
         ------------------------------------------------------------

  ==> Geometry <==

    Molecular point group: c1
    Full point group: C1

    Geometry (in Angstrom), charge = 0, multiplicity = 1:

       Center              X                  Y                   Z               Mass       
    ------------   -----------------  -----------------  -----------------  -----------------
         C           -0.434924836942    -0.079675419975    -0.130429747896    12.000000000000
         H           -0.001328085482    -0.231495051677    -1.119041394452     1.007825032070
         H           -1.279114517982     0.599939925288    -0.253621823831     1.007825032070
         C           -0.919315112758    -1.405548993660     0.429393268829    12.000000000000
         H           -1.329334285122    -1.229893330360     1.420628835397     1.007825032070
         H           -0.059045490463    -2.057010354511     0.560194941905     1.007825032070
         C           -1.962924342937    -2.086463769583    -0.456778929509    12.000000000000
         H           -1.547055361887    -2.250105363292    -1.449058032805     1.007825032070
         H           -2.815986735957    -1.423892901137    -0.589428079433     1.007825032070
         C           -2.445285367789    -3.420107845669     0.113004491630    12.000000000000
         H           -3.184488294515    -3.881422687392    -0.534801140221     1.007825032070
         H           -2.898824067890    -3.286349868807     1.090933941047     1.007825032070
         H           -1.620870452842    -4.118461160368     0.225232947451     1.007825032070
         O            0.510196582237     0.457381689305     0.750041804445    15.994914619560
         H            0.824248703550     1.288189207083     0.410555117967     1.007825032070
         C            3.050982760085     2.815628050886    -0.448561941770    12.000000000000
         H            3.480115551906     3.662872930352    -0.974256909706     1.007825032070
         H            3.555936478028     2.693135510735     0.504375587365     1.007825032070
         H            3.206287180003     1.924862590861    -1.039225068398     1.007825032070
         O            1.661941753722     2.964386942091    -0.285161235601    15.994914619560
         H            1.481019568896     3.728595925030     0.244025200556     1.007825032070

  Nuclear repulsion =  307.168599416551217

  ==> Basis Set <==

  Basis Set: 6-31G(D)
    Blend: 6-31G(D)
    Number of shells: 70
    Number of basis function: 133
    Number of Cartesian functions: 133
    Spherical Harmonics?: false
    Max angular momentum: 2

  ==> DFJKGrad: Density-Fitted SCF Gradients <==

    Gradient:                    1
    J tasked:                  Yes
    K tasked:                  Yes
    wK tasked:                  No
    OpenMP threads:             16
    Integrals threads:          16
    Memory (MB):             71525
    Schwarz Cutoff:          0E+00
    Fitting Condition:       1E-12

   => Auxiliary Basis Set <=

  Basis Set: (6-31G(D) AUX)
    Blend: CC-PVDZ-JKFIT
    Number of shells: 294
    Number of basis function: 917
    Number of Cartesian functions: 917
    Spherical Harmonics?: false
    Max angular momentum: 3


  -Total Gradient:
     Atom            X                  Y                   Z
    ------   -----------------  -----------------  -----------------
       1        0.000058826791    -0.000954146130     0.000008799007
       2       -0.000027501390     0.000111053391     0.000043879453
       3       -0.000196139806     0.000270985097    -0.000015815617
       4        0.000035342691     0.000308483450    -0.000096881473
       5       -0.000004206735    -0.000008787932     0.000005711494
       6        0.000013683720     0.000035382416    -0.000017312723
       7        0.000011997952     0.000018177166     0.000001113797
       8       -0.000000684785    -0.000000734650    -0.000000846422
       9       -0.000003262419    -0.000001722030    -0.000000948816
      10       -0.000001109930     0.000000192272    -0.000000221579
      11       -0.000000118858    -0.000001090248    -0.000000073052
      12        0.000000360485     0.000000115274    -0.000000496402
      13        0.000000086376     0.000000187441    -0.000000083552
      14        0.000065794006     0.000202657734     0.000018491529
      15        0.000047434221     0.000018714510     0.000055562734
      16       -0.000000206381     0.000000306168     0.000000831429
      17        0.000000124555    -0.000000701477     0.000000356022
      18        0.000000104240     0.000000035032    -0.000000548774
      19       -0.000001051164     0.000000498769    -0.000000058526
      20       -0.000000229193     0.000001071630    -0.000000040699
      21        0.000000755624    -0.000000677885    -0.000001417833


*** tstop() called on wr86 at Thu Dec  6 16:14:16 2018
Module time:
	user time   =      24.47 seconds =       0.41 minutes
	system time =       0.62 seconds =       0.01 minutes
	total time  =          1 seconds =       0.02 minutes
Total time:
	user time   =     197.44 seconds =       3.29 minutes
	system time =       6.15 seconds =       0.10 minutes
	total time  =         16 seconds =       0.27 minutes

  //>>>>>>>>>>>>>>>>>>>>>>>>>>>>>>>>>>>//
  //   Loading displacement 4 of 115   //
  //<<<<<<<<<<<<<<<<<<<<<<<<<<<<<<<<<<<//
gradient() will perform analytic gradient computation.

*** tstart() called on wr86
*** at Thu Dec  6 16:14:16 2018

   => Loading Basis Set <=

    Name: 6-31G(D)
    Role: ORBITAL
    Keyword: BASIS
    atoms 1, 4, 7, 10, 16                     entry C          line   111 file /usr/local/hpc1/software_molmod/psi4/psi4conda/share/psi4/basis/6-31g_d_.gbs 
    atoms 2-3, 5-6, 8-9, 11-13, 15, 17-19, 21 entry H          line    44 file /usr/local/hpc1/software_molmod/psi4/psi4conda/share/psi4/basis/6-31g_d_.gbs 
    atoms 14, 20                              entry O          line   145 file /usr/local/hpc1/software_molmod/psi4/psi4conda/share/psi4/basis/6-31g_d_.gbs 


         ---------------------------------------------------------
                                   SCF
            by Justin Turney, Rob Parrish, Andy Simmonett
                             and Daniel Smith
                              RHF Reference
                       16 Threads,  95367 MiB Core
         ---------------------------------------------------------

  ==> Geometry <==

    Molecular point group: c1
    Full point group: C1

    Geometry (in Angstrom), charge = 0, multiplicity = 1:

       Center              X                  Y                   Z               Mass       
    ------------   -----------------  -----------------  -----------------  -----------------
         C           -0.434924836942    -0.078240735325    -0.130439909645    12.000000000000
         H           -0.001293808812    -0.231707135049    -1.119035614240     1.007825032070
         H           -1.279113228245     0.599736019024    -0.253672607127     1.007825032070
         C           -0.919311617783    -1.405731927212     0.429402901550    12.000000000000
         H           -1.329360333030    -1.230055719112     1.420622606367     1.007825032070
         H           -0.059038736467    -2.057180874709     0.560244958567     1.007825032070
         C           -1.962888877495    -2.086680032867    -0.456781336016    12.000000000000
         H           -1.546990451893    -2.250342135520    -1.449044715954     1.007825032070
         H           -2.815954595821    -1.424121547707    -0.589470947650     1.007825032070
         C           -2.445251663031    -3.420314916173     0.113022110917    12.000000000000
         H           -3.184431605531    -3.881653871079    -0.534792575567     1.007825032070
         H           -2.898819089904    -3.286537190453     1.090935535655     1.007825032070
         H           -1.620832472888    -4.118656664416     0.225291127221     1.007825032070
         O            0.510171357279     0.457221976266     0.750044565369    15.994914619560
         H            0.824224143552     1.288024299621     0.410545782258     1.007825032070
         C            3.050965983239     2.815465192616    -0.448547460770    12.000000000000
         H            3.480104465273     3.662701422006    -0.974251724550     1.007825032070
         H            3.555894390648     2.693001943893     0.504407244448     1.007825032070
         H            3.206296347749     1.924686545973    -1.039183877972     1.007825032070
         O            1.661918836362     2.964213449131    -0.285189278295    15.994914619560
         H            1.480973766388     3.728433802894     0.243972911704     1.007825032070

  Running in c1 symmetry.

  Rotational constants: A =      0.33252  B =      0.01842  C =      0.01829 [cm^-1]
  Rotational constants: A =   9968.71625  B =    552.07028  C =    548.19276 [MHz]
  Nuclear repulsion =  307.163362511054174

  Charge       = 0
  Multiplicity = 1
  Electrons    = 60
  Nalpha       = 30
  Nbeta        = 30

  ==> Algorithm <==

  SCF Algorithm Type is DF.
  DIIS enabled.
  MOM disabled.
  Fractional occupation disabled.
  Guess Type is SAD.
  Energy threshold   = 1.00e-08
  Density threshold  = 1.00e-08
  Integral threshold = 0.00e+00

  ==> Primary Basis <==

  Basis Set: 6-31G(D)
    Blend: 6-31G(D)
    Number of shells: 70
    Number of basis function: 133
    Number of Cartesian functions: 133
    Spherical Harmonics?: false
    Max angular momentum: 2

   => Loading Basis Set <=

    Name: (6-31G(D) AUX)
    Role: JKFIT
    Keyword: DF_BASIS_SCF
    atoms 1, 4, 7, 10, 16                     entry C          line   121 file /usr/local/hpc1/software_molmod/psi4/psi4conda/share/psi4/basis/cc-pvdz-jkfit.gbs 
    atoms 2-3, 5-6, 8-9, 11-13, 15, 17-19, 21 entry H          line    51 file /usr/local/hpc1/software_molmod/psi4/psi4conda/share/psi4/basis/cc-pvdz-jkfit.gbs 
    atoms 14, 20                              entry O          line   221 file /usr/local/hpc1/software_molmod/psi4/psi4conda/share/psi4/basis/cc-pvdz-jkfit.gbs 

  ==> Pre-Iterations <==

   -------------------------------------------------------
    Irrep   Nso     Nmo     Nalpha   Nbeta   Ndocc  Nsocc
   -------------------------------------------------------
     A        133     133       0       0       0       0
   -------------------------------------------------------
    Total     133     133      30      30      30       0
   -------------------------------------------------------

  ==> Integral Setup <==

  ==> DiskDFJK: Density-Fitted J/K Matrices <==

    J tasked:                  Yes
    K tasked:                  Yes
    wK tasked:                  No
    OpenMP threads:             16
    Integrals threads:          16
    Memory (MB):             71525
    Algorithm:                Core
    Integral Cache:           NONE
    Schwarz Cutoff:          1E-12
    Fitting Condition:       1E-12

   => Auxiliary Basis Set <=

  Basis Set: (6-31G(D) AUX)
    Blend: CC-PVDZ-JKFIT
    Number of shells: 294
    Number of basis function: 917
    Number of Cartesian functions: 917
    Spherical Harmonics?: false
    Max angular momentum: 3

  Minimum eigenvalue in the overlap matrix is 3.5488089466E-03.
  Using Symmetric Orthogonalization.

  SCF Guess: Superposition of Atomic Densities via on-the-fly atomic UHF.

  ==> Iterations <==

                           Total Energy        Delta E     RMS |[F,P]|

   @DF-RHF iter   0:  -349.24880658796150   -3.49249e+02   1.45609e-01 
   @DF-RHF iter   1:  -346.99779759841812    2.25101e+00   1.46747e-02 
[...]
  Force const [mDyne/A]         1.6837              1.7816              1.7049        
  Turning point v=0 [a0]        0.2637              0.2568              0.2629        
  RMS dev v=0 [a0 u^1/2]        0.1910              0.1907              0.1904        
  Char temp [K]               2374.2029           2382.7163           2390.3310       
  ----------------------------------------------------------------------------------
      1   C                0.00  0.00 -0.00   -0.01 -0.03  0.01    0.00  0.01 -0.00   
      2   H               -0.00 -0.01 -0.00   -0.06  0.13 -0.04   -0.01 -0.02 -0.00   
      3   H               -0.01 -0.01  0.00    0.07  0.05 -0.13   -0.02 -0.02  0.00   
      4   C               -0.00 -0.00  0.00    0.00  0.03 -0.03   -0.00 -0.00  0.00   
      5   H               -0.00  0.01 -0.00    0.19 -0.20  0.10   -0.01  0.01 -0.00   
      6   H                0.00  0.00 -0.01   -0.08 -0.03  0.29    0.01  0.00 -0.02   
      7   C               -0.00  0.00 -0.00   -0.03  0.01 -0.06    0.00 -0.00  0.00   
      8   H                0.01 -0.01  0.00    0.35 -0.24  0.16   -0.01  0.01 -0.00   
      9   H               -0.00  0.00  0.01   -0.07  0.04  0.44    0.00 -0.00 -0.01   
     10   C               -0.00 -0.00 -0.00   -0.02 -0.01 -0.03    0.00  0.00  0.00   
     11   H               -0.00  0.01 -0.00    0.00  0.17 -0.16    0.00 -0.00  0.00   
     12   H                0.01 -0.01  0.00    0.32 -0.16  0.16   -0.01  0.00 -0.00   
     13   H               -0.00  0.00  0.01   -0.02  0.06  0.38    0.00 -0.00 -0.01   
     14   O               -0.00 -0.00  0.00    0.00  0.00 -0.00    0.00 -0.00  0.00   
     15   H                0.00 -0.00 -0.01    0.04  0.01  0.04   -0.02 -0.01 -0.03   
     16   C               -0.01  0.03 -0.05   -0.00 -0.00 -0.00   -0.04 -0.04 -0.02   
     17   H               -0.19  0.31  0.30    0.02 -0.00  0.02    0.39  0.12  0.54   
     18   H                0.22 -0.39 -0.20    0.01  0.03 -0.00    0.35  0.57 -0.13   
     19   H                0.04 -0.40  0.61   -0.01  0.00 -0.01   -0.26 -0.05 -0.03   
     20   O               -0.00  0.00 -0.01   -0.00 -0.00 -0.00   -0.01 -0.01 -0.01   
     21   H                0.00  0.01 -0.01    0.00 -0.00  0.00    0.07  0.01 -0.00   

  Vibration                       49                  50                  51          
  Freq [cm^-1]                1684.9745           3156.0628           3175.8931       
  Irrep                           A                   A                   A           
  Reduced mass [u]              1.0935              1.0559              1.1073        
  Force const [mDyne/A]         1.8292              6.1966              6.5800        
  Turning point v=0 [a0]        0.2556              0.1901              0.1850        
  RMS dev v=0 [a0 u^1/2]        0.1890              0.1381              0.1377        
  Char temp [K]               2424.2995           4540.8648           4569.3961       
  ----------------------------------------------------------------------------------
      1   C               -0.03  0.03 -0.07   -0.02  0.03 -0.06    0.07 -0.04 -0.05   
      2   H                0.52 -0.36  0.26   -0.30  0.11  0.62   -0.28  0.09  0.61   
      3   H               -0.10  0.04  0.68    0.54 -0.43  0.05   -0.53  0.44 -0.08   
      4   C               -0.00  0.01 -0.01   -0.00 -0.00  0.00   -0.01  0.01  0.01   
      5   H                0.08 -0.09  0.04    0.00 -0.00 -0.01    0.05 -0.02 -0.13   
      6   H               -0.04 -0.02  0.12   -0.01  0.01 -0.00    0.12 -0.09  0.02   
      7   C               -0.00  0.01 -0.01    0.00 -0.00  0.01   -0.01  0.00  0.00   
      8   H                0.07 -0.05  0.03    0.05 -0.02 -0.11    0.02 -0.01 -0.05   
      9   H               -0.02  0.01  0.09   -0.09  0.07 -0.01    0.04 -0.03  0.01   
     10   C               -0.00 -0.00 -0.00   -0.00 -0.00 -0.00    0.00 -0.00 -0.00   
     11   H                0.00  0.01 -0.01    0.01  0.00  0.01    0.00 -0.00 -0.00   
     12   H                0.02 -0.01  0.01   -0.00 -0.00  0.00   -0.01  0.00  0.01   
     13   H               -0.00  0.00  0.02   -0.00 -0.00 -0.00   -0.01  0.01 -0.00   
     14   O               -0.00  0.00 -0.01   -0.00 -0.00 -0.00   -0.00  0.00  0.00   
     15   H                0.00  0.00 -0.00   -0.01 -0.01 -0.00   -0.00  0.00  0.00   
     16   C                0.00 -0.00 -0.00    0.00 -0.00  0.00   -0.00  0.00  0.00   
     17   H               -0.01  0.01  0.00    0.00  0.00 -0.00   -0.00  0.00 -0.00   
     18   H               -0.01  0.01  0.01   -0.00  0.00 -0.00    0.00  0.00  0.00   
     19   H               -0.01 -0.00 -0.00    0.00 -0.00 -0.00    0.00 -0.00 -0.00   
     20   O               -0.00 -0.00  0.00   -0.00 -0.00  0.00   -0.00  0.00  0.00   
     21   H               -0.00 -0.00 -0.00   -0.00  0.00 -0.00    0.00  0.00  0.00   

  Vibration                       52                  53                  54          
  Freq [cm^-1]                3185.6474           3197.2091           3204.9728       
  Irrep                           A                   A                   A           
  Reduced mass [u]              1.0588              1.0410              1.0387        
  Force const [mDyne/A]         6.3305              6.2696              6.2863        
  Turning point v=0 [a0]        0.1889              0.1902              0.1902        
  RMS dev v=0 [a0 u^1/2]        0.1375              0.1372              0.1371        
  Char temp [K]               4583.4303           4600.0650           4611.2352       
  ----------------------------------------------------------------------------------
      1   C               -0.00  0.01 -0.01    0.00 -0.00  0.00    0.00  0.00  0.00   
      2   H               -0.05  0.02  0.10    0.01 -0.01 -0.03    0.00 -0.00 -0.01   
      3   H                0.09 -0.07  0.01   -0.03  0.02 -0.00   -0.01  0.00 -0.00   
      4   C                0.00 -0.00  0.01    0.01 -0.01  0.02    0.01 -0.01  0.02   
      5   H                0.04 -0.02 -0.09    0.09 -0.04 -0.20    0.10 -0.05 -0.23   
      6   H               -0.08  0.06 -0.01   -0.18  0.13 -0.02   -0.22  0.16 -0.03   
      7   C               -0.02  0.02 -0.06    0.01 -0.01  0.02   -0.00  0.00  0.00   
      8   H               -0.27  0.11  0.60    0.08 -0.03 -0.18    0.01 -0.00 -0.03   
      9   H                0.52 -0.40  0.06   -0.15  0.12 -0.02   -0.00  0.00  0.00   
     10   C                0.01  0.01  0.00    0.01  0.04 -0.02   -0.00 -0.01  0.00   
     11   H               -0.15 -0.09 -0.14   -0.31 -0.18 -0.28    0.06  0.04  0.05   
     12   H               -0.04  0.02  0.10   -0.23  0.08  0.50    0.03 -0.01 -0.06   
     13   H                0.09 -0.07  0.01    0.43 -0.35  0.05   -0.06  0.05 -0.01   
     14   O               -0.00 -0.00 -0.00    0.00  0.00 -0.00    0.00  0.00 -0.00   
     15   H               -0.00 -0.00 -0.00    0.00  0.00 -0.00   -0.00 -0.01  0.00   
     16   C               -0.00 -0.00  0.00    0.00  0.00 -0.00   -0.04 -0.01 -0.01   
     17   H                0.00  0.00 -0.00   -0.00 -0.01  0.00    0.23  0.49 -0.31   
     18   H               -0.00  0.00 -0.00   -0.00  0.00 -0.00    0.27 -0.07  0.53   
     19   H                0.00 -0.00 -0.00   -0.00  0.00  0.00    0.04 -0.24 -0.16   
     20   O               -0.00 -0.00  0.00    0.00  0.00 -0.00   -0.00  0.00  0.00   
     21   H               -0.00  0.00 -0.00    0.00 -0.00  0.00   -0.00  0.00  0.00   

  Vibration                       55                  56                  57          
  Freq [cm^-1]                3205.5054           3206.4237           3243.8665       
  Irrep                           A                   A                   A           
  Reduced mass [u]              1.0542              1.1033              1.1062        
  Force const [mDyne/A]         6.3818              6.6832              6.8582        
  Turning point v=0 [a0]        0.1888              0.1845              0.1832        
  RMS dev v=0 [a0 u^1/2]        0.1370              0.1370              0.1362        
  Char temp [K]               4612.0016           4613.3227           4667.1946       
  ----------------------------------------------------------------------------------
      1   C               -0.00 -0.00 -0.00   -0.00  0.00  0.00    0.01 -0.01 -0.01   
      2   H               -0.00  0.00  0.01    0.00 -0.00  0.00   -0.06  0.02  0.13   
      3   H                0.01 -0.01  0.00   -0.00  0.00 -0.00   -0.11  0.09 -0.01   
      4   C               -0.02  0.02 -0.05   -0.02  0.01  0.02    0.06 -0.04 -0.04   
      5   H               -0.23  0.10  0.52    0.11 -0.05 -0.27   -0.22  0.09  0.54   
      6   H                0.49 -0.37  0.06    0.15 -0.11  0.03   -0.46  0.35 -0.07   
      7   C                0.00 -0.00 -0.01    0.06 -0.04 -0.04    0.01 -0.01 -0.01   
      8   H               -0.03  0.01  0.07   -0.24  0.09  0.58   -0.05  0.03  0.13   
      9   H               -0.01  0.01 -0.00   -0.51  0.39 -0.08   -0.12  0.08 -0.02   
     10   C                0.01  0.02 -0.00   -0.02  0.01  0.01   -0.03  0.02  0.02   
     11   H               -0.14 -0.08 -0.12    0.01  0.01  0.01   -0.01  0.01  0.01   
     12   H               -0.07  0.02  0.15    0.07 -0.02 -0.15    0.13 -0.04 -0.29   
     13   H                0.15 -0.12  0.02    0.11 -0.09  0.02    0.25 -0.20  0.04   
     14   O                0.00  0.00  0.00   -0.00 -0.00 -0.00   -0.00  0.00  0.00   
     15   H                0.00 -0.00  0.00    0.00 -0.00 -0.00   -0.00  0.00  0.00   
     16   C               -0.02 -0.01 -0.00    0.00  0.00  0.00    0.00  0.00 -0.00   
     17   H                0.10  0.22 -0.14   -0.00 -0.01  0.00   -0.00 -0.00  0.00   
     18   H                0.12 -0.03  0.24   -0.00  0.00 -0.01    0.00  0.00  0.00   
     19   H                0.02 -0.11 -0.07   -0.00  0.00  0.00    0.00 -0.00 -0.00   
     20   O               -0.00  0.00  0.00    0.00 -0.00 -0.00   -0.00 -0.00  0.00   
     21   H               -0.00  0.00  0.00    0.00 -0.00 -0.00    0.00  0.00  0.00   

  Vibration                       58                  59                  60          
  Freq [cm^-1]                3260.1147           3261.3293           3262.2520       
  Irrep                           A                   A                   A           
  Reduced mass [u]              1.1026              1.1074              1.1041        
  Force const [mDyne/A]         6.9046              6.9399              6.9230        
  Turning point v=0 [a0]        0.1830              0.1826              0.1828        
  RMS dev v=0 [a0 u^1/2]        0.1359              0.1359              0.1358        
  Char temp [K]               4690.5720           4692.3195           4693.6471       
  ----------------------------------------------------------------------------------
      1   C               -0.00  0.00 -0.00   -0.00  0.00 -0.00    0.01 -0.00 -0.00   
      2   H               -0.00  0.00  0.01   -0.00  0.00  0.01   -0.03  0.01  0.05   
      3   H                0.01 -0.01  0.00    0.00 -0.00  0.00   -0.04  0.04 -0.01   
      4   C               -0.00  0.00 -0.00    0.00 -0.00 -0.00    0.02 -0.02 -0.02   
      5   H               -0.01  0.00  0.02   -0.00  0.00  0.01   -0.10  0.04  0.24   
      6   H                0.02 -0.02  0.00   -0.00  0.00 -0.00   -0.20  0.15 -0.03   
      7   C               -0.00  0.00 -0.01    0.00 -0.00 -0.00    0.02 -0.02 -0.02   
      8   H               -0.03  0.01  0.07   -0.00  0.00  0.01   -0.09  0.04  0.22   
      9   H                0.06 -0.05  0.01    0.00 -0.00  0.00   -0.19  0.15 -0.03   
     10   C               -0.06 -0.01 -0.07   -0.00 -0.00 -0.01    0.06 -0.04 -0.04   
     11   H                0.57  0.35  0.50    0.04  0.02  0.03    0.02 -0.00  0.00   
     12   H               -0.17  0.05  0.32   -0.02  0.01  0.04   -0.25  0.08  0.55   
     13   H                0.29 -0.25  0.02    0.01 -0.01 -0.00   -0.46  0.38 -0.07   
     14   O               -0.00  0.00 -0.00    0.00 -0.00  0.00   -0.00  0.00  0.00   
     15   H               -0.00 -0.00  0.00   -0.00  0.00 -0.00   -0.00 -0.00  0.00   
     16   C                0.00 -0.00  0.01   -0.00  0.05 -0.08    0.00 -0.00  0.00   
     17   H                0.02  0.04 -0.02   -0.26 -0.55  0.33    0.01  0.01 -0.01   
     18   H               -0.02  0.00 -0.04    0.32 -0.07  0.63   -0.01  0.00 -0.02   
     19   H               -0.00  0.00  0.00    0.00  0.00 -0.02    0.00 -0.00 -0.00   
     20   O               -0.00  0.00 -0.00    0.00 -0.00  0.00   -0.00  0.00 -0.00   
     21   H               -0.00  0.00 -0.00   -0.00 -0.00  0.00    0.00  0.00  0.00   

  Vibration                       61                  62                  63          
  Freq [cm^-1]                3322.7340           4050.6725           4115.1540       
  Irrep                           A                   A                   A           
  Reduced mass [u]              1.1016              1.0670              1.0670        
  Force const [mDyne/A]         7.1658             10.3149             10.6456        
  Turning point v=0 [a0]        0.1814              0.1669              0.1656        
  RMS dev v=0 [a0 u^1/2]        0.1346              0.1219              0.1209        
  Char temp [K]               4780.6672           5828.0070           5920.7813       
  ----------------------------------------------------------------------------------
      1   C                0.00 -0.00 -0.00   -0.00 -0.00  0.00   -0.00  0.00 -0.00   
      2   H               -0.00  0.00  0.00    0.00  0.00  0.01   -0.00 -0.00 -0.00   
      3   H               -0.00  0.00 -0.00    0.01 -0.00  0.00   -0.00 -0.00 -0.00   
      4   C                0.00 -0.00 -0.00    0.00  0.00  0.00   -0.00 -0.00  0.00   
      5   H               -0.00  0.00  0.00    0.00 -0.00 -0.00    0.00  0.00 -0.00   
      6   H               -0.00  0.00 -0.00   -0.00  0.00  0.00    0.00 -0.00 -0.00   
      7   C                0.00 -0.00 -0.00    0.00  0.00 -0.00   -0.00  0.00 -0.00   
      8   H               -0.00  0.00  0.00   -0.00  0.00  0.00    0.00 -0.00 -0.00   
      9   H               -0.00  0.00 -0.00    0.00 -0.00  0.00    0.00 -0.00  0.00   
     10   C                0.00 -0.00 -0.00    0.00 -0.00  0.00   -0.00 -0.00  0.00   
     11   H               -0.00 -0.00 -0.00    0.00  0.00  0.00    0.00  0.00  0.00   
     12   H               -0.00  0.00  0.00    0.00 -0.00 -0.00    0.00  0.00 -0.00   
     13   H               -0.00  0.00 -0.00   -0.00  0.00 -0.00    0.00 -0.00 -0.00   
     14   O               -0.00 -0.00  0.00   -0.02 -0.05  0.02    0.00  0.00 -0.00   
     15   H                0.00 -0.00 -0.00    0.33  0.87 -0.35   -0.02 -0.05  0.02   
     16   C               -0.00 -0.08 -0.05   -0.00  0.00  0.00   -0.00 -0.00 -0.00   
     17   H                0.08  0.16 -0.11    0.00  0.00 -0.00   -0.00  0.00  0.00   
     18   H                0.10 -0.04  0.19    0.00 -0.00  0.00   -0.00  0.00  0.00   
     19   H               -0.12  0.78  0.52    0.00 -0.00 -0.00   -0.00  0.01  0.01   
     20   O                0.00  0.00  0.00    0.00 -0.00 -0.00    0.01 -0.05 -0.03   
     21   H               -0.01 -0.01 -0.01   -0.01  0.05  0.03   -0.20  0.80  0.56   

  ==> Thermochemistry Components <==

  Entropy, S
    Electronic S            0.000 [cal/(mol K)]        0.000 [J/(mol K)]       0.00000000 [mEh/K] (multiplicity = 1)
    Translational S        39.895 [cal/(mol K)]      166.919 [J/(mol K)]       0.06357599 [mEh/K] (mol. weight = 106.0994 [u], P = 101325.00 [Pa])
    Rotational S           29.056 [cal/(mol K)]      121.572 [J/(mol K)]       0.04630414 [mEh/K] (symmetry no. = 1)
    Vibrational S          44.648 [cal/(mol K)]      186.806 [J/(mol K)]       0.07115063 [mEh/K]
  Total S                 113.599 [cal/(mol K)]      475.296 [J/(mol K)]       0.18103076 [mEh/K]
  Correction S              0.000 [cal/(mol K)]        0.000 [J/(mol K)]       0.00000000 [mEh/K]

  Constant volume heat capacity, Cv
    Electronic Cv           0.000 [cal/(mol K)]        0.000 [J/(mol K)]       0.00000000 [mEh/K]
    Translational Cv        2.981 [cal/(mol K)]       12.472 [J/(mol K)]       0.00475022 [mEh/K]
    Rotational Cv           2.981 [cal/(mol K)]       12.472 [J/(mol K)]       0.00475022 [mEh/K]
    Vibrational Cv         29.054 [cal/(mol K)]      121.561 [J/(mol K)]       0.04630006 [mEh/K]
  Total Cv                 35.015 [cal/(mol K)]      146.504 [J/(mol K)]       0.05580051 [mEh/K]
  Correction Cv             0.000 [cal/(mol K)]        0.000 [J/(mol K)]       0.00000000 [mEh/K]

  Constant pressure heat capacity, Cp
    Electronic Cp           0.000 [cal/(mol K)]        0.000 [J/(mol K)]       0.00000000 [mEh/K]
    Translational Cp        4.968 [cal/(mol K)]       20.786 [J/(mol K)]       0.00791704 [mEh/K]
    Rotational Cp           2.981 [cal/(mol K)]       12.472 [J/(mol K)]       0.00475022 [mEh/K]
    Vibrational Cp         29.054 [cal/(mol K)]      121.561 [J/(mol K)]       0.04630006 [mEh/K]
  Total Cp                 37.003 [cal/(mol K)]      154.819 [J/(mol K)]       0.05896732 [mEh/K]
  Correction Cp             0.000 [cal/(mol K)]        0.000 [J/(mol K)]       0.00000000 [mEh/K]

  ==> Thermochemistry Energy Analysis <==

  Raw electronic energy, E0
  Total E0, Electronic energy at well bottom at 0 [K]                 -347.18902729 [Eh]

  Zero-point energy, ZPE_vib = Sum_i nu_i / 2
    Electronic ZPE          0.000 [kcal/mol]        0.000 [kJ/mol]       0.00000000 [Eh]
    Translational ZPE       0.000 [kcal/mol]        0.000 [kJ/mol]       0.00000000 [Eh]
    Rotational ZPE          0.000 [kcal/mol]        0.000 [kJ/mol]       0.00000000 [Eh]
    Vibrational ZPE       128.231 [kcal/mol]      536.517 [kJ/mol]       0.20434862 [Eh]       44849.332 [cm^-1]
  Correction ZPE          128.231 [kcal/mol]      536.517 [kJ/mol]       0.20434862 [Eh]       44849.332 [cm^-1]
  Total ZPE, Electronic energy at 0 [K]                               -346.98467867 [Eh]

  Thermal Energy, E (includes ZPE)
    Electronic E            0.000 [kcal/mol]        0.000 [kJ/mol]       0.00000000 [Eh]
    Translational E         0.889 [kcal/mol]        3.718 [kJ/mol]       0.00141628 [Eh]
    Rotational E            0.889 [kcal/mol]        3.718 [kJ/mol]       0.00141628 [Eh]
    Vibrational E         133.704 [kcal/mol]      559.417 [kJ/mol]       0.21307080 [Eh]
  Correction E            135.481 [kcal/mol]      566.854 [kJ/mol]       0.21590335 [Eh]
  Total E, Electronic energy at  298.15 [K]                           -346.97312394 [Eh]

  Enthalpy, H_trans = E_trans + k_B * T
    Electronic H            0.000 [kcal/mol]        0.000 [kJ/mol]       0.00000000 [Eh]
    Translational H         1.481 [kcal/mol]        6.197 [kJ/mol]       0.00236046 [Eh]
    Rotational H            0.889 [kcal/mol]        3.718 [kJ/mol]       0.00141628 [Eh]
    Vibrational H         133.704 [kcal/mol]      559.417 [kJ/mol]       0.21307080 [Eh]
  Correction H            136.074 [kcal/mol]      569.333 [kJ/mol]       0.21684754 [Eh]
  Total H, Enthalpy at  298.15 [K]                                    -346.97217975 [Eh]

  Gibbs free energy, G = H - T * S
    Electronic G            0.000 [kcal/mol]        0.000 [kJ/mol]       0.00000000 [Eh]
    Translational G       -10.413 [kcal/mol]      -43.569 [kJ/mol]      -0.01659472 [Eh]
    Rotational G           -7.774 [kcal/mol]      -32.528 [kJ/mol]      -0.01238930 [Eh]
    Vibrational G         120.392 [kcal/mol]      503.721 [kJ/mol]       0.19185724 [Eh]
  Correction G            102.204 [kcal/mol]      427.624 [kJ/mol]       0.16287322 [Eh]
  Total G, Free enthalpy at  298.15 [K]                               -347.02615408 [Eh]

    Psi4 stopped on: Thursday, 06 December 2018 04:21PM
    Psi4 wall time for execution: 0:07:48.12

*** Psi4 exiting successfully. Buy a developer a beer!
