
    -----------------------------------------------------------------------
          Psi4: An Open-Source Ab Initio Electronic Structure Package
                               Psi4 1.2.1 release

                         Git: Rev {HEAD} 406f4de 


    R. M. Parrish, L. A. Burns, D. G. A. Smith, A. C. Simmonett,
    A. E. DePrince III, E. G. Hohenstein, U. Bozkaya, A. Yu. Sokolov,
    R. Di Remigio, R. M. Richard, J. F. Gonthier, A. M. James,
    H. R. McAlexander, A. Kumar, M. Saitow, X. Wang, B. P. Pritchard,
    P. Verma, H. F. Schaefer III, K. Patkowski, R. A. King, E. F. Valeev,
    F. A. Evangelista, J. M. Turney, T. D. Crawford, and C. D. Sherrill,
    J. Chem. Theory Comput. 13(7) pp 3185--3197 (2017).
    (doi: 10.1021/acs.jctc.7b00174)


                         Additional Contributions by
    P. Kraus, H. Kruse, M. H. Lechner, M. C. Schieber, and R. A. Shaw

    -----------------------------------------------------------------------


    Psi4 started on: Friday, 05 October 2018 02:57PM

    Process ID: 293650
    Host:       wr86
    PSIDATADIR: /usr/local/hpc1/software_molmod/psi4/psi4conda/share/psi4
    Memory:     500.0 MiB
    Threads:    16
    
  ==> Input File <==

--------------------------------------------------------------------------
memory 100 Gb

molecule conf_01 {
0 1
  C    -4.771619784200     1.385877568500    -0.110706598100
  H    -5.089701090900     1.275603557100    -1.148241652900
  H    -3.958900810400     2.109701541100    -0.100163633500
  C    -4.300038863300     0.042769258200     0.424665832500
  H    -3.960411094100     0.179066037000     1.448439173900
  H    -5.165411280700    -0.612190514100     0.471079151600
  C    -3.201256880100    -0.624508959300    -0.408928771300
  H    -3.039933972100    -1.627243826600    -0.021865570400
  H    -3.548184576300    -0.749979921400    -1.432966801600
  C    -1.863486336800     0.119276440300    -0.414094450300
  H    -1.109677958000    -0.446015918200    -0.953764586400
  H    -1.939957649600     1.092506502400    -0.888079416500
  H    -1.499452368300     0.272855669300     0.598153175200
  O    -5.830753801700     1.826257797300     0.690618189000
  H    -6.122534009500     2.679416270700     0.388827571600
  C    -8.254931600800     4.256380446400    -0.615363151500
  H    -8.633853519700     5.149846668300    -1.101695348400
  H    -8.878984021500     4.023973963500     0.241763939300
  H    -8.304753373400     3.433196406900    -1.312786415500
  O    -6.905006345300     4.405520472600    -0.250002941600
  H    -6.818150663100     5.110690539600     0.376112304900
}
set globals {
  reference rhf
  g_convergence gau_tight
  basis 6-31G(d)
}
set optking {
dynamic_level = 1
}
optimize('scf')
--------------------------------------------------------------------------

  Memory set to  93.132 GiB by Python driver.
gradient() will perform analytic gradient computation.

*** tstart() called on wr86
*** at Fri Oct  5 14:57:51 2018

   => Loading Basis Set <=

    Name: 6-31G(D)
    Role: ORBITAL
    Keyword: BASIS
    atoms 1, 4, 7, 10, 16                     entry C          line   111 file /usr/local/hpc1/software_molmod/psi4/psi4conda/share/psi4/basis/6-31g_d_.gbs 
    atoms 2-3, 5-6, 8-9, 11-13, 15, 17-19, 21 entry H          line    44 file /usr/local/hpc1/software_molmod/psi4/psi4conda/share/psi4/basis/6-31g_d_.gbs 
    atoms 14, 20                              entry O          line   145 file /usr/local/hpc1/software_molmod/psi4/psi4conda/share/psi4/basis/6-31g_d_.gbs 


         ---------------------------------------------------------
                                   SCF
            by Justin Turney, Rob Parrish, Andy Simmonett
                             and Daniel Smith
                              RHF Reference
                       16 Threads,  95367 MiB Core
         ---------------------------------------------------------

  ==> Geometry <==

    Molecular point group: c1
    Full point group: C1

    Geometry (in Angstrom), charge = 0, multiplicity = 1:

       Center              X                  Y                   Z               Mass       
    ------------   -----------------  -----------------  -----------------  -----------------
         C            0.327429380153    -0.347375038995    -0.017326306932    12.000000000000
         H            0.009348073453    -0.457649050395    -1.054861361732     1.007825032070
         H            1.140148353953     0.376448933605    -0.006783342332     1.007825032070
         C            0.799010301053    -1.690483349295     0.518046123668    12.000000000000
         H            1.138638070253    -1.554186570495     1.541819465068     1.007825032070
         H           -0.066362116347    -2.345443121595     0.564459442768     1.007825032070
         C            1.897792284253    -2.357761566795    -0.315548480132    12.000000000000
         H            2.059115192253    -3.360496434095     0.071514720768     1.007825032070
         H            1.550864588053    -2.483232528895    -1.339586510432     1.007825032070
         C            3.235562827553    -1.613976167195    -0.320714159132    12.000000000000
         H            3.989371206353    -2.179268525695    -0.860384295232     1.007825032070
         H            3.159091514753    -0.640746105095    -0.794699125332     1.007825032070
         H            3.599596796053    -1.460396938195     0.691533466368     1.007825032070
         O           -0.731704637347     0.093005189805     0.783998480168    15.994914619560
         H           -1.023484845147     0.946163663205     0.482207862768     1.007825032070
         C           -3.155882436447     2.523127838905    -0.521982860332    12.000000000000
         H           -3.534804355347     3.416594060805    -1.008315057232     1.007825032070
         H           -3.779934857147     2.290721356005     0.335144230468     1.007825032070
         H           -3.205704209047     1.699943799405    -1.219406124332     1.007825032070
         O           -1.805957180947     2.672267865105    -0.156622650432    15.994914619560
         H           -1.719101498747     3.377437932105     0.469492596068     1.007825032070

  Running in c1 symmetry.

  Rotational constants: A =      0.21543  B =      0.02073  C =      0.01997 [cm^-1]
  Rotational constants: A =   6458.51257  B =    621.55455  C =    598.66783 [MHz]
  Nuclear repulsion =  310.663995445769444

  Charge       = 0
  Multiplicity = 1
  Electrons    = 60
  Nalpha       = 30
  Nbeta        = 30

  ==> Algorithm <==

  SCF Algorithm Type is DF.
  DIIS enabled.
  MOM disabled.
  Fractional occupation disabled.
  Guess Type is SAD.
  Energy threshold   = 1.00e-08
  Density threshold  = 1.00e-08
  Integral threshold = 0.00e+00

  ==> Primary Basis <==

  Basis Set: 6-31G(D)
    Blend: 6-31G(D)
    Number of shells: 70
    Number of basis function: 133
    Number of Cartesian functions: 133
    Spherical Harmonics?: false
    Max angular momentum: 2

   => Loading Basis Set <=

    Name: (6-31G(D) AUX)
    Role: JKFIT
    Keyword: DF_BASIS_SCF
    atoms 1, 4, 7, 10, 16                     entry C          line   121 file /usr/local/hpc1/software_molmod/psi4/psi4conda/share/psi4/basis/cc-pvdz-jkfit.gbs 
    atoms 2-3, 5-6, 8-9, 11-13, 15, 17-19, 21 entry H          line    51 file /usr/local/hpc1/software_molmod/psi4/psi4conda/share/psi4/basis/cc-pvdz-jkfit.gbs 
    atoms 14, 20                              entry O          line   221 file /usr/local/hpc1/software_molmod/psi4/psi4conda/share/psi4/basis/cc-pvdz-jkfit.gbs 

  ==> Pre-Iterations <==

   -------------------------------------------------------
    Irrep   Nso     Nmo     Nalpha   Nbeta   Ndocc  Nsocc
   -------------------------------------------------------
     A        133     133       0       0       0       0
   -------------------------------------------------------
    Total     133     133      30      30      30       0
   -------------------------------------------------------

  ==> Integral Setup <==

  ==> DiskDFJK: Density-Fitted J/K Matrices <==

    J tasked:                  Yes
    K tasked:                  Yes
    wK tasked:                  No
    OpenMP threads:             16
    Integrals threads:          16
    Memory (MB):             71525
    Algorithm:                Core
    Integral Cache:           NONE
    Schwarz Cutoff:          1E-12
    Fitting Condition:       1E-12

   => Auxiliary Basis Set <=

  Basis Set: (6-31G(D) AUX)
    Blend: CC-PVDZ-JKFIT
    Number of shells: 294
    Number of basis function: 917
    Number of Cartesian functions: 917
    Spherical Harmonics?: false
    Max angular momentum: 3

  Minimum eigenvalue in the overlap matrix is 4.1221539340E-03.
  Using Symmetric Orthogonalization.

  SCF Guess: Superposition of Atomic Densities via on-the-fly atomic UHF.

  ==> Iterations <==

                           Total Energy        Delta E     RMS |[F,P]|

   @DF-RHF iter   0:  -349.54944312908208   -3.49549e+02   1.39804e-01 
   @DF-RHF iter   1:  -347.01041640741653    2.53903e+00   1.37646e-02 
   @DF-RHF iter   2:  -347.16851354692767   -1.58097e-01   4.57317e-03 DIIS
   @DF-RHF iter   3:  -347.18419761371769   -1.56841e-02   1.97107e-03 DIIS
   @DF-RHF iter   4:  -347.18710136270801   -2.90375e-03   4.54783e-04 DIIS
   @DF-RHF iter   5:  -347.18733103542701   -2.29673e-04   1.29959e-04 DIIS
   @DF-RHF iter   6:  -347.18735169004867   -2.06546e-05   3.85050e-05 DIIS
   @DF-RHF iter   7:  -347.18735360062732   -1.91058e-06   1.17141e-05 DIIS
   @DF-RHF iter   8:  -347.18735382538574   -2.24758e-07   2.49970e-06 DIIS
   @DF-RHF iter   9:  -347.18735383708025   -1.16945e-08   6.65242e-07 DIIS
   @DF-RHF iter  10:  -347.18735383757547   -4.95220e-10   2.06001e-07 DIIS
   @DF-RHF iter  11:  -347.18735383762748   -5.20117e-11   5.84286e-08 DIIS
   @DF-RHF iter  12:  -347.18735383763317   -5.68434e-12   2.37775e-08 DIIS
   @DF-RHF iter  13:  -347.18735383763334   -1.70530e-13   6.35153e-09 DIIS

  ==> Post-Iterations <==

    Orbital Energies [Eh]
    ---------------------

    Doubly Occupied:                                                      

       1A    -20.581708     2A    -20.522636     3A    -11.280909  
       4A    -11.249469     5A    -11.209865     6A    -11.203682  
       7A    -11.199279     8A     -1.383230     9A     -1.333622  
      10A     -1.058587    11A     -0.958296    12A     -0.943814  
      13A     -0.856204    14A     -0.772523    15A     -0.715932  
      16A     -0.677829    17A     -0.638081    18A     -0.634121  
      19A     -0.613743    20A     -0.605124    21A     -0.572347  
      22A     -0.541850    23A     -0.525567    24A     -0.518699  
      25A     -0.492382    26A     -0.468736    27A     -0.462772  
      28A     -0.461739    29A     -0.438971    30A     -0.410708  

    Virtual:                                                              

      31A      0.205068    32A      0.238546    33A      0.268365  
      34A      0.279067    35A      0.287936    36A      0.302355  
      37A      0.315122    38A      0.319612    39A      0.321717  
      40A      0.335798    41A      0.345380    42A      0.352613  
      43A      0.364975    44A      0.384908    45A      0.394281  
      46A      0.429025    47A      0.441928    48A      0.473746  
      49A      0.484194    50A      0.728317    51A      0.733059  
      52A      0.751098    53A      0.755885    54A      0.769380  
      55A      0.776019    56A      0.780090    57A      0.806809  
      58A      0.860695    59A      0.903829    60A      0.941569  
      61A      0.976832    62A      1.001385    63A      1.025557  
      64A      1.047294    65A      1.116887    66A      1.125469  
      67A      1.140066    68A      1.151935    69A      1.160995  
      70A      1.164873    71A      1.172018    72A      1.180001  
      73A      1.189998    74A      1.205990    75A      1.212669  
      76A      1.223328    77A      1.244348    78A      1.254152  
      79A      1.262706    80A      1.265459    81A      1.283374  
      82A      1.331463    83A      1.371815    84A      1.395073  
      85A      1.451072    86A      1.520064    87A      1.648187  
      88A      1.699331    89A      1.714730    90A      1.723398  
      91A      1.747305    92A      1.828011    93A      1.853153  
      94A      1.859628    95A      1.895056    96A      1.974913  
      97A      2.022647    98A      2.060258    99A      2.119856  
     100A      2.146831   101A      2.215738   102A      2.275975  
     103A      2.279298   104A      2.326901   105A      2.352157  
     106A      2.371648   107A      2.421105   108A      2.433640  
     109A      2.469036   110A      2.487719   111A      2.587423  
     112A      2.645428   113A      2.654793   114A      2.682665  
     115A      2.703364   116A      2.728843   117A      2.749974  
     118A      2.784833   119A      2.801734   120A      2.841250  
     121A      2.914153   122A      2.984712   123A      2.998198  
     124A      3.126668   125A      3.150468   126A      3.308414  
     127A      4.195630   128A      4.398319   129A      4.579606  
     130A      4.635641   131A      4.708751   132A      4.852635  
     133A      4.959990  

    Final Occupation by Irrep:
              A 
    DOCC [    30 ]

  Energy converged.

  @DF-RHF Final Energy:  -347.18735383763334

   => Energetics <=

    Nuclear Repulsion Energy =            310.6639954457694444
    One-Electron Energy =               -1089.0378481068476049
    Two-Electron Energy =                 431.1864988234448788
    Total Energy =                       -347.1873538376333386



Properties will be evaluated at   0.000000,   0.000000,   0.000000 [a0]

Properties computed using the SCF density matrix

  Nuclear Dipole Moment: [e a0]
     X:     3.0972      Y:    -2.2124      Z:    -1.9918

  Electronic Dipole Moment: [e a0]
     X:    -3.6140      Y:     3.1844      Z:     1.7069

  Dipole Moment: [e a0]
     X:    -0.5168      Y:     0.9721      Z:    -0.2849     Total:     1.1372

  Dipole Moment: [D]
     X:    -1.3136      Y:     2.4708      Z:    -0.7241     Total:     2.8904


*** tstop() called on wr86 at Fri Oct  5 14:57:54 2018
Module time:
	user time   =      26.13 seconds =       0.44 minutes
	system time =       1.10 seconds =       0.02 minutes
	total time  =          3 seconds =       0.05 minutes
Total time:
	user time   =      26.13 seconds =       0.44 minutes
	system time =       1.10 seconds =       0.02 minutes
	total time  =          3 seconds =       0.05 minutes

*** tstart() called on wr86
*** at Fri Oct  5 14:57:54 2018


         ------------------------------------------------------------
                                   SCF GRAD                          
                          Rob Parrish, Justin Turney,                
                       Andy Simmonett, and Alex Sokolov              
         ------------------------------------------------------------

  ==> Geometry <==

    Molecular point group: c1
    Full point group: C1

    Geometry (in Angstrom), charge = 0, multiplicity = 1:

       Center              X                  Y                   Z               Mass       
    ------------   -----------------  -----------------  -----------------  -----------------
         C            0.327429380153    -0.347375038995    -0.017326306932    12.000000000000
         H            0.009348073453    -0.457649050395    -1.054861361732     1.007825032070
         H            1.140148353953     0.376448933605    -0.006783342332     1.007825032070
         C            0.799010301053    -1.690483349295     0.518046123668    12.000000000000
         H            1.138638070253    -1.554186570495     1.541819465068     1.007825032070
         H           -0.066362116347    -2.345443121595     0.564459442768     1.007825032070
         C            1.897792284253    -2.357761566795    -0.315548480132    12.000000000000
         H            2.059115192253    -3.360496434095     0.071514720768     1.007825032070
         H            1.550864588053    -2.483232528895    -1.339586510432     1.007825032070
         C            3.235562827553    -1.613976167195    -0.320714159132    12.000000000000
         H            3.989371206353    -2.179268525695    -0.860384295232     1.007825032070
         H            3.159091514753    -0.640746105095    -0.794699125332     1.007825032070
         H            3.599596796053    -1.460396938195     0.691533466368     1.007825032070
         O           -0.731704637347     0.093005189805     0.783998480168    15.994914619560
         H           -1.023484845147     0.946163663205     0.482207862768     1.007825032070
         C           -3.155882436447     2.523127838905    -0.521982860332    12.000000000000
         H           -3.534804355347     3.416594060805    -1.008315057232     1.007825032070
         H           -3.779934857147     2.290721356005     0.335144230468     1.007825032070
         H           -3.205704209047     1.699943799405    -1.219406124332     1.007825032070
         O           -1.805957180947     2.672267865105    -0.156622650432    15.994914619560
         H           -1.719101498747     3.377437932105     0.469492596068     1.007825032070

  Nuclear repulsion =  310.663995445769444

  ==> Basis Set <==

  Basis Set: 6-31G(D)
    Blend: 6-31G(D)
    Number of shells: 70
    Number of basis function: 133
    Number of Cartesian functions: 133
    Spherical Harmonics?: false
    Max angular momentum: 2

  ==> DFJKGrad: Density-Fitted SCF Gradients <==

    Gradient:                    1
    J tasked:                  Yes
    K tasked:                  Yes
    wK tasked:                  No
    OpenMP threads:             16
    Integrals threads:          16
    Memory (MB):             71525
    Schwarz Cutoff:          0E+00
    Fitting Condition:       1E-12

   => Auxiliary Basis Set <=

  Basis Set: (6-31G(D) AUX)
    Blend: CC-PVDZ-JKFIT
    Number of shells: 294
    Number of basis function: 917
    Number of Cartesian functions: 917
    Spherical Harmonics?: false
    Max angular momentum: 3


  -Total Gradient:
     Atom            X                  Y                   Z
    ------   -----------------  -----------------  -----------------
       1       -0.000054234392     0.000019931960     0.000053031101
       2       -0.000004607577     0.000003132780    -0.000016458625
       3        0.000010421915     0.000014038256    -0.000003423788
       4        0.000004618117     0.000001893965    -0.000020480594
       5       -0.000002295892    -0.000000361685     0.000012272158
       6       -0.000008754424    -0.000004070108     0.000006404301
       7        0.000007675764     0.000000171963     0.000012491525
       8       -0.000000156812    -0.000008256446    -0.000001910550
       9       -0.000003454211    -0.000004429479    -0.000006847891
      10       -0.000006577292    -0.000005346889    -0.000006517880
      11        0.000006907909    -0.000000028999    -0.000001214088
      12        0.000002668546     0.000005933942    -0.000001640496
      13        0.000004077740     0.000003165546     0.000004554365
      14        0.000036098477    -0.000034338547    -0.000017992831
      15        0.000008892539     0.000004548548    -0.000010941911
      16        0.000060301320     0.000008616341     0.000018568120
      17       -0.000001826677     0.000011010162    -0.000004993599
      18       -0.000005411057    -0.000002789036     0.000011612428
      19        0.000002486305    -0.000005353239    -0.000004001759
      20       -0.000045133394    -0.000016691412    -0.000027889990
      21       -0.000011696898     0.000009222373     0.000005380002


*** tstop() called on wr86 at Fri Oct  5 14:57:56 2018
Module time:
	user time   =      26.53 seconds =       0.44 minutes
	system time =       0.76 seconds =       0.01 minutes
	total time  =          2 seconds =       0.03 minutes
Total time:
	user time   =      52.69 seconds =       0.88 minutes
	system time =       1.86 seconds =       0.03 minutes
	total time  =          5 seconds =       0.08 minutes

			-----------------------------------------
			 OPTKING 2.0: for geometry optimizations 
			  - R.A. King,  Bethel University        
			-----------------------------------------
	At level 1: Red. Int., RFO, no backsteps, dynamic trust

	Internal coordinates to be generated automatically.
	Detected frag 1 with atoms:  1 2 3 4 5 6 7 8 9 10 11 12 13 14 15
	Detected frag 2 with atoms:  16 17 18 19 20 21
	Unifying fragments since fragment_mode == SINGLE
	Increasing scaling to  2.200 to connect fragments.
	Connecting fragments 1 and 2
	---Fragment 1 Bond Connectivity---
	 1 : 2 3 4 14
	 2 : 1
	 3 : 1
	 4 : 1 5 6 7
	 5 : 4
	 6 : 4
	 7 : 4 8 9 10
	 8 : 7
	 9 : 7
	 10 : 7 11 12 13
	 11 : 10
	 12 : 10
	 13 : 10
	 14 : 1 15
	 15 : 14 20
	 16 : 17 18 19 20
	 17 : 16
	 18 : 16
	 19 : 16
	 20 : 15 16 21
	 21 : 20

trying 1 14 20 16
passed phi is    2.07080
trying 1 14 20 21
passed phi is   -2.05274
	---Fragment 1 Geometry and Gradient---
	 C           0.6187518563       -0.6564436891       -0.0327419750
	 H           0.0176652987       -0.8648313702       -1.9933990818
	 H           2.1545681398        0.7113853875       -0.0128186593
	 C           1.5099106463       -3.1945505624        0.9789652979
	 H           2.1517141173       -2.9369869776        2.9136165353
	 H          -0.1254062255       -4.4322451601        1.0666737600
	 C           3.5863076743       -4.4555236479       -0.5963002091
	 H           3.8911637894       -6.3504179310        0.1351432367
	 H           2.9307093406       -4.6926294039       -2.5314516360
	 C           6.1143276298       -3.0499729410       -0.6060619277
	 H           7.5388190224       -4.1182206836       -1.6258906870
	 H           5.9698177916       -1.2108346593       -1.5017637049
	 H           6.8022521334       -2.7597502585        1.3068088632
	 O          -1.3827213747        0.1757543377        1.4815424161
	 H          -1.9341060585        1.7879902003        0.9112407998
	 C          -5.9637535125        4.7680206138       -0.9864046521
	 H          -6.6798121649        6.4564270822       -1.9054393138
	 H          -7.1430416802        4.3288360096        0.6333308106
	 H          -6.0579030181        3.2124282222       -2.3043436198
	 O          -3.4127644797        5.0498544188       -0.2959739155
	 H          -3.2486310273        6.3824327225        0.8872124280
	            -0.0000542344        0.0000199320        0.0000530311
	            -0.0000046076        0.0000031328       -0.0000164586
	             0.0000104219        0.0000140383       -0.0000034238
	             0.0000046181        0.0000018940       -0.0000204806
	            -0.0000022959       -0.0000003617        0.0000122722
	            -0.0000087544       -0.0000040701        0.0000064043
	             0.0000076758        0.0000001720        0.0000124915
	            -0.0000001568       -0.0000082564       -0.0000019106
	            -0.0000034542       -0.0000044295       -0.0000068479
	            -0.0000065773       -0.0000053469       -0.0000065179
	             0.0000069079       -0.0000000290       -0.0000012141
	             0.0000026685        0.0000059339       -0.0000016405
	             0.0000040777        0.0000031655        0.0000045544
	             0.0000360985       -0.0000343385       -0.0000179928
	             0.0000088925        0.0000045485       -0.0000109419
	             0.0000603013        0.0000086163        0.0000185681
	            -0.0000018267        0.0000110102       -0.0000049936
	            -0.0000054111       -0.0000027890        0.0000116124
	             0.0000024863       -0.0000053532       -0.0000040018
	            -0.0000451334       -0.0000166914       -0.0000278900
	            -0.0000116969        0.0000092224        0.0000053800

	Previous optimization step data not found.  Starting new optimization.

	---Fragment 1 Intrafragment Coordinates---
	 - Coordinate -           - BOHR/RAD -       - ANG/DEG -
	 H(15,20)         =         3.779359	       1.999951
	 R(1,2)           =         2.061288	       1.090786
	 R(1,3)           =         2.056717	       1.088368
	 R(1,4)           =         2.873970	       1.520839
	 R(1,14)          =         2.644146	       1.399222
	 R(4,5)           =         2.054538	       1.087215
	 R(4,6)           =         2.052764	       1.086276
	 R(4,7)           =         2.895331	       1.532143
	 R(7,8)           =         2.053916	       1.086886
	 R(7,9)           =         2.056900	       1.088465
	 R(7,10)          =         2.892499	       1.530645
	 R(10,11)         =         2.051921	       1.085830
	 R(10,12)         =         2.050755	       1.085213
	 R(10,13)         =         2.053423	       1.086624
	 R(14,15)         =         1.796823	       0.950838
	 R(16,17)         =         2.051361	       1.085533
	 R(16,18)         =         2.051133	       1.085413
	 R(16,19)         =         2.041003	       1.080052
	 R(16,20)         =         2.657757	       1.406424
	 R(20,21)         =         1.789591	       0.947011
	 B(1,4,5)         =         1.894029	     108.519885
	 B(1,4,6)         =         1.876010	     107.487482
	 B(1,4,7)         =         1.999257	     114.549009
	 B(1,14,15)       =         1.910186	     109.445577
	 B(2,1,3)         =         1.869416	     107.109621
	 B(2,1,4)         =         1.913441	     109.632066
	 B(2,1,14)        =         1.934590	     110.843844
	 B(3,1,4)         =         1.930907	     110.632808
	 B(3,1,14)        =         1.928766	     110.510151
	 B(4,1,14)        =         1.887107	     108.123282
	 B(4,7,8)         =         1.890715	     108.329998
	 B(4,7,9)         =         1.910801	     109.480846
	 B(4,7,10)        =         2.000928	     114.644737
	 B(5,4,6)         =         1.858979	     106.511648
	 B(5,4,7)         =         1.920793	     110.053327
	 B(6,4,7)         =         1.909186	     109.388294
	 B(7,10,11)       =         1.934185	     110.820631
	 B(7,10,12)       =         1.955920	     112.065940
	 B(7,10,13)       =         1.937280	     110.997952
	 B(8,7,9)         =         1.850429	     106.021747
	 B(8,7,10)        =         1.896299	     108.649931
	 B(9,7,10)        =         1.908592	     109.354257
	 B(11,10,12)      =         1.874156	     107.381256
	 B(11,10,13)      =         1.879684	     107.697951
	 B(12,10,13)      =         1.879398	     107.681589
	 L(14,15,20)      =         3.050493	     174.780371
	 l(14,15,20)      =         3.141593	     180.000000
	 B(15,20,16)      =         1.946563	     111.529869
	 B(15,20,21)      =         1.977516	     113.303301
	 B(16,20,21)      =         1.916380	     109.800494
	 B(17,16,18)      =         1.906386	     109.227857
	 B(17,16,19)      =         1.898553	     108.779055
	 B(17,16,20)      =         1.943513	     111.355116
	 B(18,16,19)      =         1.896741	     108.675242
	 B(18,16,20)      =         1.949172	     111.679313
	 B(19,16,20)      =         1.867998	     107.028399
	 D(1,4,7,8)       =        -3.005643	    -172.210666
	 D(1,4,7,9)       =        -0.995216	     -57.021704
	 D(1,4,7,10)      =         1.156810	      66.280305
	 D(2,1,4,5)       =         3.112911	     178.356662
	 D(2,1,4,6)       =        -1.166258	     -66.821680
	 D(2,1,4,7)       =         0.959074	      54.950914
	 D(2,1,14,15)     =        -1.075136	     -61.600783
	 D(3,1,4,5)       =         1.054998	      60.446908
	 D(3,1,4,6)       =         3.059014	     175.268566
	 D(3,1,4,7)       =        -1.098839	     -62.958839
	 D(3,1,14,15)     =         0.994650	      56.989263
	 D(4,1,14,15)     =         3.110314	     178.207838
	 D(4,7,10,11)     =         3.060909	     175.377153
	 D(4,7,10,12)     =        -1.129024	     -64.688300
	 D(4,7,10,13)     =         0.973048	      55.751515
	 D(5,4,1,14)      =        -1.059338	     -60.695597
	 D(5,4,7,8)       =         1.138132	      65.210153
	 D(5,4,7,9)       =        -3.134627	    -179.600884
	 D(5,4,7,10)      =        -0.982601	     -56.298876
	 D(6,4,1,14)      =         0.944678	      54.126061
	 D(6,4,7,8)       =        -0.898538	     -51.482448
	 D(6,4,7,9)       =         1.111888	      63.706514
	 D(6,4,7,10)      =        -3.019271	    -172.991477
	 D(7,4,1,14)      =         3.070011	     175.898655
	 D(8,7,10,11)     =         0.943233	      54.043248
	 D(8,7,10,12)     =         3.036485	     173.977796
	 D(8,7,10,13)     =        -1.144629	     -65.582390
	 D(9,7,10,11)     =        -1.069067	     -61.252999
	 D(9,7,10,12)     =         1.024186	      58.681548
	 D(9,7,10,13)     =         3.126258	     179.121363
	 D(15,20,16,17)   =        -2.989868	    -171.306832
	 D(15,20,16,18)   =         1.156887	      66.284766
	 D(15,20,16,19)   =        -0.916992	     -52.539751
	 D(17,16,20,21)   =         1.086460	      62.249571
	 D(18,16,20,21)   =        -1.049970	     -60.158830
	 D(19,16,20,21)   =        -3.123849	    -178.983348
	 D(1,14,20,16)    =         2.070796	     118.647867
	 D(1,14,20,21)    =        -2.052743	    -117.613539

	Current energy   :      -347.1873538376

	Generating empirical Hessian (Schlegel '84) for each fragment.
	Taking RFO optimization step.
	Going to follow RFO solution 1.
	Using RFO vector 1.
	Norm of target step-size    0.00539
	Projected energy change by RFO approximation:        -0.0000000372

	Back-transformation to cartesian coordinates...
	Successfully converged to displaced geometry.

	--- Internal Coordinate Step in ANG or DEG, aJ/ANG or AJ/DEG ---
	 ---------------------------------------------------------------------------
	   Coordinate                Previous        Force       Change         New 
	   ----------                --------       ------       ------       ------
	    1 H(15,20)        =      1.999951    -0.000036    -0.000079     1.999872
	    2 R(1,2)          =      1.090786    -0.000137    -0.000025     1.090761
	    3 R(1,3)          =      1.088368    -0.000141    -0.000026     1.088342
	    4 R(1,4)          =      1.520839    -0.000086    -0.000018     1.520821
	    5 R(1,14)         =      1.399222     0.000482     0.000068     1.399289
	    6 R(4,5)          =      1.087215    -0.000089    -0.000016     1.087198
	    7 R(4,6)          =      1.086276    -0.000080    -0.000015     1.086262
	    8 R(4,7)          =      1.532143    -0.000102    -0.000022     1.532120
	    9 R(7,8)          =      1.086886    -0.000057    -0.000010     1.086875
	   10 R(7,9)          =      1.088465    -0.000066    -0.000012     1.088453
	   11 R(7,10)         =      1.530645    -0.000066    -0.000014     1.530630
	   12 R(10,11)        =      1.085830    -0.000045    -0.000008     1.085822
	   13 R(10,12)        =      1.085213    -0.000048    -0.000009     1.085204
	   14 R(10,13)        =      1.086624    -0.000050    -0.000009     1.086615
	   15 R(14,15)        =      0.950838    -0.000076    -0.000006     0.950832
	   16 R(16,17)        =      1.085533    -0.000098    -0.000018     1.085516
	   17 R(16,18)        =      1.085413    -0.000106    -0.000019     1.085394
	   18 R(16,19)        =      1.080052    -0.000054    -0.000010     1.080043
	   19 R(16,20)        =      1.406424     0.000495     0.000071     1.406495
	   20 R(20,21)        =      0.947011    -0.000077    -0.000008     0.947002
	   21 B(1,4,5)        =    108.519885     0.000000    -0.011038   108.508847
	   22 B(1,4,6)        =    107.487482     0.000000     0.005590   107.493072
	   23 B(1,4,7)        =    114.549009    -0.000001    -0.001096   114.547913
	   24 B(1,14,15)      =    109.445577     0.000002     0.000786   109.446363
	   25 B(2,1,3)        =    107.109621     0.000000    -0.002316   107.107304
	   26 B(2,1,4)        =    109.632066    -0.000000    -0.015875   109.616191
	   27 B(2,1,14)       =    110.843844     0.000000     0.009584   110.853428
	   28 B(3,1,4)        =    110.632808    -0.000000     0.008636   110.641443
	   29 B(3,1,14)       =    110.510151     0.000000     0.001069   110.511220
	   30 B(4,1,14)       =    108.123282     0.000000    -0.001119   108.122163
	   31 B(4,7,8)        =    108.329998     0.000000    -0.003847   108.326151
	   32 B(4,7,9)        =    109.480846     0.000000     0.009789   109.490635
	   33 B(4,7,10)       =    114.644737    -0.000000     0.000868   114.645606
	   34 B(5,4,6)        =    106.511648     0.000000    -0.000439   106.511209
	   35 B(5,4,7)        =    110.053327     0.000000     0.008893   110.062220
	   36 B(6,4,7)        =    109.388294     0.000000    -0.001998   109.386296
	   37 B(7,10,11)      =    110.820631    -0.000000    -0.000770   110.819861
	   38 B(7,10,12)      =    112.065940    -0.000000     0.017494   112.083433
	   39 B(7,10,13)      =    110.997952    -0.000000    -0.011949   110.986003
	   40 B(8,7,9)        =    106.021747     0.000000    -0.004126   106.017621
	   41 B(8,7,10)       =    108.649931    -0.000000     0.005646   108.655578
	   42 B(9,7,10)       =    109.354257     0.000000    -0.008723   109.345534
	   43 B(11,10,12)     =    107.381256     0.000000    -0.003782   107.377474
	   44 B(11,10,13)     =    107.697951     0.000000     0.007575   107.705526
	   45 B(12,10,13)     =    107.681589     0.000000    -0.008796   107.672792
	   46 L(14,15,20)     =    174.780371     0.000000    -0.009107   174.771263
	   47 l(14,15,20)     =    180.000000     0.000000     0.000000   180.000000
	   48 B(15,20,16)     =    111.529869     0.000000    -0.038431   111.491438
	   49 B(15,20,21)     =    113.303301    -0.000001     0.031895   113.335196
	   50 B(16,20,21)     =    109.800494     0.000002    -0.055207   109.745287
	   51 B(17,16,18)     =    109.227857    -0.000000     0.004372   109.232230
	   52 B(17,16,19)     =    108.779055    -0.000000     0.016162   108.795217
	   53 B(17,16,20)     =    111.355116     0.000000    -0.021220   111.333895
	   54 B(18,16,19)     =    108.675242    -0.000000     0.005758   108.681000
	   55 B(18,16,20)     =    111.679313     0.000000     0.011088   111.690401
	   56 B(19,16,20)     =    107.028399     0.000000    -0.015585   107.012814
	   57 D(1,4,7,8)      =   -172.210666    -0.000000     0.084434  -172.126232
	   58 D(1,4,7,9)      =    -57.021704     0.000000     0.082646   -56.939058
	   59 D(1,4,7,10)     =     66.280305     0.000000     0.079431    66.359736
	   60 D(2,1,4,5)      =    178.356662    -0.000000     0.008449   178.365110
	   61 D(2,1,4,6)      =    -66.821680     0.000000     0.005272   -66.816408
	   62 D(2,1,4,7)      =     54.950914    -0.000000     0.006094    54.957008
	   63 D(2,1,14,15)    =    -61.600783    -0.000000    -0.006089   -61.606872
	   64 D(3,1,4,5)      =     60.446908    -0.000000     0.015847    60.462755
	   65 D(3,1,4,6)      =    175.268566     0.000000     0.012670   175.281237
	   66 D(3,1,4,7)      =    -62.958839    -0.000000     0.013493   -62.945347
	   67 D(3,1,14,15)    =     56.989263     0.000000    -0.002215    56.987048
	   68 D(4,1,14,15)    =    178.207838    -0.000000     0.008342   178.216179
	   69 D(4,7,10,11)    =    175.377153    -0.000000     0.014661   175.391814
	   70 D(4,7,10,12)    =    -64.688300    -0.000000     0.021085   -64.667214
	   71 D(4,7,10,13)    =     55.751515    -0.000000     0.013489    55.765004
	   72 D(5,4,1,14)     =    -60.695597    -0.000000     0.009978   -60.685619
	   73 D(5,4,7,8)      =     65.210153     0.000000     0.092871    65.303024
	   74 D(5,4,7,9)      =   -179.600884     0.000000     0.091082  -179.509802
	   75 D(5,4,7,10)     =    -56.298876     0.000000     0.087868   -56.211008
	   76 D(6,4,1,14)     =     54.126061     0.000000     0.006801    54.132862
	   77 D(6,4,7,8)      =    -51.482448    -0.000000     0.089437   -51.393011
	   78 D(6,4,7,9)      =     63.706514     0.000000     0.087649    63.794163
	   79 D(6,4,7,10)     =   -172.991477     0.000000     0.084434  -172.907043
	   80 D(7,4,1,14)     =    175.898655     0.000000     0.007623   175.906279
	   81 D(8,7,10,11)    =     54.043248     0.000000     0.014846    54.058094
	   82 D(8,7,10,12)    =    173.977796     0.000000     0.021271   173.999066
	   83 D(8,7,10,13)    =    -65.582390     0.000000     0.013675   -65.568715
	   84 D(9,7,10,11)    =    -61.252999    -0.000000     0.021364   -61.231636
	   85 D(9,7,10,12)    =     58.681548    -0.000000     0.027788    58.709336
	   86 D(9,7,10,13)    =    179.121363     0.000000     0.020192   179.141555
	   87 D(15,20,16,17)  =   -171.306832     0.000000    -0.013390  -171.320222
	   88 D(15,20,16,18)  =     66.284766     0.000000    -0.011712    66.273054
	   89 D(15,20,16,19)  =    -52.539751     0.000000    -0.015321   -52.555072
	   90 D(17,16,20,21)  =     62.249571    -0.000000     0.015070    62.264641
	   91 D(18,16,20,21)  =    -60.158830    -0.000000     0.016748   -60.142083
	   92 D(19,16,20,21)  =   -178.983348    -0.000000     0.013139  -178.970209
	   93 D(1,14,20,16)   =    118.647867     0.000000     0.056421   118.704288
	   94 D(1,14,20,21)   =   -117.613539    -0.000000    -0.046583  -117.660121
	 ---------------------------------------------------------------------------
	Successfully symmetrized geometry.

  ==> Convergence Check <==

  Measures of convergence in internal coordinates in au.
  Criteria marked as inactive (o), active & met (*), and active & unmet ( ).
  --------------------------------------------------------------------------------------------- ~
   Step     Total Energy     Delta E     MAX Force     RMS Force      MAX Disp      RMS Disp    ~
  --------------------------------------------------------------------------------------------- ~
    Convergence Criteria             o    1.50e-05 *    1.00e-05 *    6.00e-05 *    4.00e-05 *  ~
  --------------------------------------------------------------------------------------------- ~
      1    -347.18735384   -3.47e+02 o    6.00e-05      1.06e-05      1.62e-03      5.32e-04    ~
  ---------------------------------------------------------------------------------------------

	Writing optimization data to binary file.
	Structure for next step:
	Cartesian Geometry (in Angstrom)
	    C     0.3323154750  -0.3455424222  -0.0230277960
	    H     0.0229239803  -0.4399813428  -1.0647176704
	    H     1.1262508626   0.3981852878   0.0089705776
	    C     0.8348678284  -1.6883722567   0.4840676406
	    H     1.1651000363  -1.5671858270   1.5127857165
	    H    -0.0137568486  -2.3659604952   0.5100409377
	    C     1.9548752290  -2.3080706792  -0.3579243240
	    H     2.1383877063  -3.3156628842   0.0059145507
	    H     1.6176500735  -2.4171340056  -1.3870567476
	    C     3.2738906203  -1.5318279954  -0.3361314244
	    H     4.0446307796  -2.0650975104  -0.8843941200
	    H     3.1765903240  -0.5493531954  -0.7866236971
	    H     3.6277311206  -1.3943051140   0.6820125437
	    O    -0.7420659984   0.0492556920   0.7818631150
	    H    -1.0538386576   0.9014915978   0.4980087379
	    C    -3.2215682013   2.4472891758  -0.4767694375
	    H    -3.6214725827   3.3425695352  -0.9424876650
	    H    -3.8428684911   2.1774371255   0.3713137044
	    H    -3.2467568444   1.6407096908  -1.1946048261
	    O    -1.8774002718   2.6224551865  -0.1015908396
	    H    -1.8124536882   3.3137956788   0.5423371382
			--------------------------
			 OPTKING Finished Execution 
			--------------------------

    Structure for next step:
    Molecular point group: c1
    Full point group: C1

    Geometry (in Angstrom), charge = 0, multiplicity = 1:

    C            0.336570047759    -0.338536644953    -0.025085456056
    H            0.027178553064    -0.432975565498    -1.066775330509
    H            1.130505435278     0.405191065043     0.006912917469
    C            0.839122401073    -1.681366479426     0.482009980470
    H            1.169354608978    -1.560180049715     1.510728056426
    H           -0.009502275864    -2.358954717877     0.507983277612
    C            1.959129801713    -2.301064901957    -0.359981984121
    H            2.142642279065    -3.308657106875     0.003856890572
    H            1.621904646190    -2.410128228283    -1.389114407679
    C            3.278145193019    -1.524822218111    -0.338189084547
    H            4.048885352286    -2.058091733077    -0.886451780110
    H            3.180844896703    -0.542347418107    -0.788681357248
    H            3.631985693318    -1.387299336680     0.679954883572
    O           -0.737811425704     0.056261469262     0.779805454861
    H           -1.049584084927     0.908497375101     0.495951077829
    C           -3.217313628593     2.454294953048    -0.478827097559
    H           -3.617218009993     3.349575312500    -0.944545325106
    H           -3.838613918409     2.184442902769     0.369256044339
    H           -3.242502271674     1.647715468071    -1.196662486242
    O           -1.873145699115     2.629460963756    -0.103648499684
    H           -1.808199115510     3.320801456119     0.540279478123

gradient() will perform analytic gradient computation.

*** tstart() called on wr86
*** at Fri Oct  5 14:57:56 2018

   => Loading Basis Set <=

    Name: 6-31G(D)
    Role: ORBITAL
    Keyword: BASIS
    atoms 1, 4, 7, 10, 16                     entry C          line   111 file /usr/local/hpc1/software_molmod/psi4/psi4conda/share/psi4/basis/6-31g_d_.gbs 
    atoms 2-3, 5-6, 8-9, 11-13, 15, 17-19, 21 entry H          line    44 file /usr/local/hpc1/software_molmod/psi4/psi4conda/share/psi4/basis/6-31g_d_.gbs 
    atoms 14, 20                              entry O          line   145 file /usr/local/hpc1/software_molmod/psi4/psi4conda/share/psi4/basis/6-31g_d_.gbs 


         ---------------------------------------------------------
                                   SCF
            by Justin Turney, Rob Parrish, Andy Simmonett
                             and Daniel Smith
                              RHF Reference
                       16 Threads,  95367 MiB Core
         ---------------------------------------------------------

  ==> Geometry <==

    Molecular point group: c1
    Full point group: C1

    Geometry (in Angstrom), charge = 0, multiplicity = 1:

       Center              X                  Y                   Z               Mass       
    ------------   -----------------  -----------------  -----------------  -----------------
         C            0.336570047759    -0.338536644953    -0.025085456056    12.000000000000
         H            0.027178553064    -0.432975565498    -1.066775330509     1.007825032070
         H            1.130505435278     0.405191065043     0.006912917469     1.007825032070
         C            0.839122401073    -1.681366479426     0.482009980470    12.000000000000
         H            1.169354608978    -1.560180049715     1.510728056426     1.007825032070
         H           -0.009502275864    -2.358954717877     0.507983277612     1.007825032070
         C            1.959129801713    -2.301064901957    -0.359981984121    12.000000000000
         H            2.142642279065    -3.308657106875     0.003856890572     1.007825032070
         H            1.621904646190    -2.410128228283    -1.389114407679     1.007825032070
         C            3.278145193019    -1.524822218111    -0.338189084547    12.000000000000
         H            4.048885352286    -2.058091733077    -0.886451780110     1.007825032070
         H            3.180844896703    -0.542347418107    -0.788681357248     1.007825032070
         H            3.631985693318    -1.387299336680     0.679954883572     1.007825032070
         O           -0.737811425704     0.056261469262     0.779805454861    15.994914619560
         H           -1.049584084927     0.908497375101     0.495951077829     1.007825032070
         C           -3.217313628593     2.454294953048    -0.478827097559    12.000000000000
         H           -3.617218009993     3.349575312500    -0.944545325106     1.007825032070
         H           -3.838613918409     2.184442902769     0.369256044339     1.007825032070
         H           -3.242502271674     1.647715468071    -1.196662486242     1.007825032070
         O           -1.873145699115     2.629460963756    -0.103648499684    15.994914619560
         H           -1.808199115510     3.320801456119     0.540279478123     1.007825032070

  Running in c1 symmetry.

  Rotational constants: A =      0.21575  B =      0.02072  C =      0.01996 [cm^-1]
  Rotational constants: A =   6468.06189  B =    621.26777  C =    598.42074 [MHz]
  Nuclear repulsion =  310.650692869483350

  Charge       = 0
  Multiplicity = 1
  Electrons    = 60
  Nalpha       = 30
  Nbeta        = 30

  ==> Algorithm <==

  SCF Algorithm Type is DF.
  DIIS enabled.
  MOM disabled.
  Fractional occupation disabled.
  Guess Type is READ.
  Energy threshold   = 1.00e-08
  Density threshold  = 1.00e-08
  Integral threshold = 0.00e+00

  ==> Primary Basis <==

  Basis Set: 6-31G(D)
    Blend: 6-31G(D)
    Number of shells: 70
    Number of basis function: 133
    Number of Cartesian functions: 133
    Spherical Harmonics?: false
    Max angular momentum: 2

   => Loading Basis Set <=

    Name: (6-31G(D) AUX)
    Role: JKFIT
    Keyword: DF_BASIS_SCF
    atoms 1, 4, 7, 10, 16                     entry C          line   121 file /usr/local/hpc1/software_molmod/psi4/psi4conda/share/psi4/basis/cc-pvdz-jkfit.gbs 
    atoms 2-3, 5-6, 8-9, 11-13, 15, 17-19, 21 entry H          line    51 file /usr/local/hpc1/software_molmod/psi4/psi4conda/share/psi4/basis/cc-pvdz-jkfit.gbs 
    atoms 14, 20                              entry O          line   221 file /usr/local/hpc1/software_molmod/psi4/psi4conda/share/psi4/basis/cc-pvdz-jkfit.gbs 

  Reading orbitals from file 180, no projection.

  ==> Pre-Iterations <==

   -------------------------------------------------------
    Irrep   Nso     Nmo     Nalpha   Nbeta   Ndocc  Nsocc
   -------------------------------------------------------
     A        133     133       0       0       0       0
   -------------------------------------------------------
    Total     133     133      30      30      30       0
   -------------------------------------------------------

  ==> Integral Setup <==

  ==> DiskDFJK: Density-Fitted J/K Matrices <==

    J tasked:                  Yes
    K tasked:                  Yes
    wK tasked:                  No
    OpenMP threads:             16
    Integrals threads:          16
    Memory (MB):             71525
    Algorithm:                Core
    Integral Cache:           NONE
    Schwarz Cutoff:          1E-12
    Fitting Condition:       1E-12

   => Auxiliary Basis Set <=

  Basis Set: (6-31G(D) AUX)
    Blend: CC-PVDZ-JKFIT
    Number of shells: 294
    Number of basis function: 917
    Number of Cartesian functions: 917
    Spherical Harmonics?: false
    Max angular momentum: 3

  Minimum eigenvalue in the overlap matrix is 4.1221420279E-03.
  Using Symmetric Orthogonalization.

  SCF Guess: Orbitals guess was supplied from a previous computation.

  ==> Iterations <==

                           Total Energy        Delta E     RMS |[F,P]|

   @DF-RHF iter   0:  -347.18089660034445   -3.47181e+02   1.58859e-03 
   @DF-RHF iter   1:  -347.18711827370657   -6.22167e-03   3.24514e-04 
   @DF-RHF iter   2:  -347.18732437849650   -2.06105e-04   1.07726e-04 DIIS
   @DF-RHF iter   3:  -347.18735247393391   -2.80954e-05   2.45663e-05 DIIS
   @DF-RHF iter   4:  -347.18735347017150   -9.96238e-07   6.60077e-06 DIIS
   @DF-RHF iter   5:  -347.18735360114937   -1.30978e-07   1.95504e-06 DIIS
   @DF-RHF iter   6:  -347.18735361108781   -9.93845e-09   7.81839e-07 DIIS
   @DF-RHF iter   7:  -347.18735361251697   -1.42916e-09   2.17496e-07 DIIS
   @DF-RHF iter   8:  -347.18735361264368   -1.26704e-10   4.75968e-08 DIIS
   @DF-RHF iter   9:  -347.18735361264987   -6.19593e-12   1.48248e-08 DIIS
   @DF-RHF iter  10:  -347.18735361265010   -2.27374e-13   3.15718e-09 DIIS

  ==> Post-Iterations <==

    Orbital Energies [Eh]
    ---------------------

    Doubly Occupied:                                                      

       1A    -20.581712     2A    -20.522648     3A    -11.280897  
       4A    -11.249475     5A    -11.209867     6A    -11.203678  
       7A    -11.199278     8A     -1.383236     9A     -1.333608  
      10A     -1.058600    11A     -0.958319    12A     -0.943782  
      13A     -0.856200    14A     -0.772556    15A     -0.715928  
      16A     -0.677822    17A     -0.638079    18A     -0.634114  
      19A     -0.613684    20A     -0.605132    21A     -0.572355  
      22A     -0.541855    23A     -0.525578    24A     -0.518759  
      25A     -0.492372    26A     -0.468748    27A     -0.462779  
      28A     -0.461753    29A     -0.438989    30A     -0.410728  

    Virtual:                                                              

      31A      0.205074    32A      0.238548    33A      0.268417  
      34A      0.279043    35A      0.287914    36A      0.302336  
      37A      0.315099    38A      0.319605    39A      0.321715  
      40A      0.335783    41A      0.345383    42A      0.352616  
      43A      0.364965    44A      0.384914    45A      0.394332  
      46A      0.429034    47A      0.441979    48A      0.473733  
      49A      0.484151    50A      0.728283    51A      0.733013  
      52A      0.751118    53A      0.755874    54A      0.769375  
      55A      0.776004    56A      0.780068    57A      0.806867  
      58A      0.860671    59A      0.903794    60A      0.941570  
      61A      0.976874    62A      1.001415    63A      1.025554  
      64A      1.047297    65A      1.116915    66A      1.125438  
      67A      1.140082    68A      1.151960    69A      1.160951  
      70A      1.164885    71A      1.171966    72A      1.180026  
      73A      1.190030    74A      1.206020    75A      1.212638  
      76A      1.223394    77A      1.244327    78A      1.254181  
      79A      1.262714    80A      1.265482    81A      1.283386  
      82A      1.331474    83A      1.371860    84A      1.395000  
      85A      1.450983    86A      1.519977    87A      1.648152  
      88A      1.699412    89A      1.714855    90A      1.723455  
      91A      1.747325    92A      1.828004    93A      1.852949  
      94A      1.859647    95A      1.895046    96A      1.974911  
      97A      2.022632    98A      2.060277    99A      2.120044  
     100A      2.146939   101A      2.215725   102A      2.276014  
     103A      2.279118   104A      2.326978   105A      2.352133  
     106A      2.371871   107A      2.421049   108A      2.433830  
     109A      2.469026   110A      2.487729   111A      2.587449  
     112A      2.645354   113A      2.654590   114A      2.682602  
     115A      2.703421   116A      2.728753   117A      2.750082  
     118A      2.784909   119A      2.801528   120A      2.841312  
     121A      2.914149   122A      2.984626   123A      2.998316  
     124A      3.126645   125A      3.150509   126A      3.308343  
     127A      4.195559   128A      4.398477   129A      4.579607  
     130A      4.635624   131A      4.708726   132A      4.852734  
     133A      4.959989  

    Final Occupation by Irrep:
              A 
    DOCC [    30 ]

  Energy converged.

  @DF-RHF Final Energy:  -347.18735361265010

   => Energetics <=

    Nuclear Repulsion Energy =            310.6506928694833505
    One-Electron Energy =               -1089.0110322983657625
    Two-Electron Energy =                 431.1729858162323126
    Total Energy =                       -347.1873536126500994



Properties will be evaluated at   0.000000,   0.000000,   0.000000 [a0]

Properties computed using the SCF density matrix

  Nuclear Dipole Moment: [e a0]
     X:     3.1633      Y:    -2.0893      Z:    -2.0192

  Electronic Dipole Moment: [e a0]
     X:    -3.7037      Y:     3.0532      Z:     1.7555

  Dipole Moment: [e a0]
     X:    -0.5403      Y:     0.9639      Z:    -0.2637     Total:     1.1361

  Dipole Moment: [D]
     X:    -1.3734      Y:     2.4500      Z:    -0.6702     Total:     2.8876


*** tstop() called on wr86 at Fri Oct  5 14:57:58 2018
Module time:
	user time   =      23.16 seconds =       0.39 minutes
	system time =       1.12 seconds =       0.02 minutes
	total time  =          2 seconds =       0.03 minutes
Total time:
	user time   =      79.51 seconds =       1.33 minutes
	system time =       3.09 seconds =       0.05 minutes
	total time  =          7 seconds =       0.12 minutes

*** tstart() called on wr86
*** at Fri Oct  5 14:57:58 2018


         ------------------------------------------------------------
                                   SCF GRAD                          
                          Rob Parrish, Justin Turney,                
                       Andy Simmonett, and Alex Sokolov              
         ------------------------------------------------------------

  ==> Geometry <==

    Molecular point group: c1
    Full point group: C1

    Geometry (in Angstrom), charge = 0, multiplicity = 1:

       Center              X                  Y                   Z               Mass       
    ------------   -----------------  -----------------  -----------------  -----------------
         C            0.336570047759    -0.338536644953    -0.025085456056    12.000000000000
         H            0.027178553064    -0.432975565498    -1.066775330509     1.007825032070
         H            1.130505435278     0.405191065043     0.006912917469     1.007825032070
         C            0.839122401073    -1.681366479426     0.482009980470    12.000000000000
         H            1.169354608978    -1.560180049715     1.510728056426     1.007825032070
         H           -0.009502275864    -2.358954717877     0.507983277612     1.007825032070
         C            1.959129801713    -2.301064901957    -0.359981984121    12.000000000000
         H            2.142642279065    -3.308657106875     0.003856890572     1.007825032070
         H            1.621904646190    -2.410128228283    -1.389114407679     1.007825032070
         C            3.278145193019    -1.524822218111    -0.338189084547    12.000000000000
         H            4.048885352286    -2.058091733077    -0.886451780110     1.007825032070
         H            3.180844896703    -0.542347418107    -0.788681357248     1.007825032070
         H            3.631985693318    -1.387299336680     0.679954883572     1.007825032070
         O           -0.737811425704     0.056261469262     0.779805454861    15.994914619560
         H           -1.049584084927     0.908497375101     0.495951077829     1.007825032070
         C           -3.217313628593     2.454294953048    -0.478827097559    12.000000000000
         H           -3.617218009993     3.349575312500    -0.944545325106     1.007825032070
         H           -3.838613918409     2.184442902769     0.369256044339     1.007825032070
         H           -3.242502271674     1.647715468071    -1.196662486242     1.007825032070
         O           -1.873145699115     2.629460963756    -0.103648499684    15.994914619560
         H           -1.808199115510     3.320801456119     0.540279478123     1.007825032070

  Nuclear repulsion =  310.650692869483350

  ==> Basis Set <==

  Basis Set: 6-31G(D)
    Blend: 6-31G(D)
    Number of shells: 70
    Number of basis function: 133
    Number of Cartesian functions: 133
    Spherical Harmonics?: false
    Max angular momentum: 2

  ==> DFJKGrad: Density-Fitted SCF Gradients <==

    Gradient:                    1
    J tasked:                  Yes
    K tasked:                  Yes
    wK tasked:                  No
    OpenMP threads:             16
    Integrals threads:          16
    Memory (MB):             71525
    Schwarz Cutoff:          0E+00
    Fitting Condition:       1E-12

   => Auxiliary Basis Set <=

  Basis Set: (6-31G(D) AUX)
    Blend: CC-PVDZ-JKFIT
    Number of shells: 294
    Number of basis function: 917
    Number of Cartesian functions: 917
    Spherical Harmonics?: false
    Max angular momentum: 3


  -Total Gradient:
     Atom            X                  Y                   Z
    ------   -----------------  -----------------  -----------------
       1       -0.000005627409     0.000044055496     0.000045428628
       2        0.000030132366    -0.000024119381    -0.000004293252
       3       -0.000008063162     0.000010461273    -0.000015735963
       4        0.000001235631    -0.000027627749    -0.000032805622
       5       -0.000021830297     0.000028789450     0.000000874938
       6        0.000008997633    -0.000013845884     0.000011933604
       7       -0.000003704393    -0.000013552370     0.000033682493
       8       -0.000026237296    -0.000008277918    -0.000006721186
       9        0.000030936645    -0.000001257291    -0.000005947413
      10       -0.000022325735     0.000001080316    -0.000049108429
      11       -0.000002975387     0.000005186405    -0.000009463473
      12        0.000038538584     0.000006593284     0.000013097623
      13       -0.000023062580     0.000008190099     0.000003923544
      14       -0.000005762940    -0.000011255853     0.000038251995
      15        0.000007166624    -0.000011957442    -0.000032621194
      16       -0.000034160326     0.000038703604     0.000098026576
      17        0.000038190369     0.000029619429     0.000016746190
      18       -0.000019048124     0.000002180231    -0.000006565988
      19        0.000056275884    -0.000011959394     0.000012744484
      20        0.000086725269    -0.000061340209    -0.000091572562
      21       -0.000125401355     0.000010333903    -0.000019874995


*** tstop() called on wr86 at Fri Oct  5 14:58:00 2018
Module time:
	user time   =      27.63 seconds =       0.46 minutes
	system time =       0.72 seconds =       0.01 minutes
	total time  =          2 seconds =       0.03 minutes
Total time:
	user time   =     107.17 seconds =       1.79 minutes
	system time =       3.82 seconds =       0.06 minutes
	total time  =          9 seconds =       0.15 minutes

			-----------------------------------------
			 OPTKING 2.0: for geometry optimizations 
			  - R.A. King,  Bethel University        
			-----------------------------------------
	At level 1: Red. Int., RFO, no backsteps, dynamic trust

	Previous internal coordinate definitions found.
	---Fragment 1 Geometry and Gradient---
	 C           0.6360252148       -0.6397415449       -0.0474046419
	 H           0.0513600220       -0.8182052410       -2.0159132200
	 H           2.1363456644        0.7657001444        0.0130635208
	 C           1.5857115300       -3.1773221751        0.9108668564
	 H           2.2097599632       -2.9483130120        2.8548622879
	 H          -0.0179566990       -4.4577783767        0.9599492748
	 C           3.7022187840       -4.3483824787       -0.6802673628
	 H           4.0490071082       -6.2524557996        0.0072884669
	 H           3.0649555950       -4.5544822966       -2.6250457978
	 C           6.1947966386       -2.8814963936       -0.6390847509
	 H           7.6512844593       -3.8892297319       -1.6751510944
	 H           6.0109257260       -1.0248880891       -1.4903917713
	 H           6.8634582789       -2.6216158107        1.2849285127
	 O          -1.3942615323        0.1063187687        1.4736187466
	 H          -1.9834264739        1.7168112314        0.9372117124
	 C          -6.0798416416        4.6379453106       -0.9048520794
	 H          -6.8355514018        6.3297800021       -1.7849319845
	 H          -7.2539290357        4.1279988392        0.6977927967
	 H          -6.1274412787        3.1137309796       -2.2613643725
	 O          -3.5397323783        4.9689610986       -0.1958672785
	 H          -3.4170011220        6.2754052938        1.0209802489
	            -0.0000056274        0.0000440555        0.0000454286
	             0.0000301324       -0.0000241194       -0.0000042933
	            -0.0000080632        0.0000104613       -0.0000157360
	             0.0000012356       -0.0000276277       -0.0000328056
	            -0.0000218303        0.0000287894        0.0000008749
	             0.0000089976       -0.0000138459        0.0000119336
	            -0.0000037044       -0.0000135524        0.0000336825
	            -0.0000262373       -0.0000082779       -0.0000067212
	             0.0000309366       -0.0000012573       -0.0000059474
	            -0.0000223257        0.0000010803       -0.0000491084
	            -0.0000029754        0.0000051864       -0.0000094635
	             0.0000385386        0.0000065933        0.0000130976
	            -0.0000230626        0.0000081901        0.0000039235
	            -0.0000057629       -0.0000112559        0.0000382520
	             0.0000071666       -0.0000119574       -0.0000326212
	            -0.0000341603        0.0000387036        0.0000980266
	             0.0000381904        0.0000296194        0.0000167462
	            -0.0000190481        0.0000021802       -0.0000065660
	             0.0000562759       -0.0000119594        0.0000127445
	             0.0000867253       -0.0000613402       -0.0000915726
	            -0.0001254014        0.0000103339       -0.0000198750

	---Fragment 1 Intrafragment Coordinates---
	 - Coordinate -           - BOHR/RAD -       - ANG/DEG -
	 H(15,20)         =         3.779211	       1.999872
	 R(1,2)           =         2.061240	       1.090761
	 R(1,3)           =         2.056668	       1.088342
	 R(1,4)           =         2.873935	       1.520821
	 R(1,14)          =         2.644274	       1.399289
	 R(4,5)           =         2.054507	       1.087198
	 R(4,6)           =         2.052737	       1.086262
	 R(4,7)           =         2.895288	       1.532120
	 R(7,8)           =         2.053896	       1.086875
	 R(7,9)           =         2.056877	       1.088453
	 R(7,10)          =         2.892472	       1.530630
	 R(10,11)         =         2.051906	       1.085822
	 R(10,12)         =         2.050738	       1.085204
	 R(10,13)         =         2.053405	       1.086615
	 R(14,15)         =         1.796812	       0.950832
	 R(16,17)         =         2.051327	       1.085516
	 R(16,18)         =         2.051097	       1.085394
	 R(16,19)         =         2.040985	       1.080043
	 R(16,20)         =         2.657891	       1.406495
	 R(20,21)         =         1.789575	       0.947002
	 B(1,4,5)         =         1.893837	     108.508847
	 B(1,4,6)         =         1.876108	     107.493072
	 B(1,4,7)         =         1.999238	     114.547913
	 B(1,14,15)       =         1.910199	     109.446363
	 B(2,1,3)         =         1.869375	     107.107304
	 B(2,1,4)         =         1.913163	     109.616191
	 B(2,1,14)        =         1.934757	     110.853428
	 B(3,1,4)         =         1.931057	     110.641443
	 B(3,1,14)        =         1.928785	     110.511220
	 B(4,1,14)        =         1.887088	     108.122163
	 B(4,7,8)         =         1.890648	     108.326151
	 B(4,7,9)         =         1.910972	     109.490635
	 B(4,7,10)        =         2.000943	     114.645606
	 B(5,4,6)         =         1.858971	     106.511209
	 B(5,4,7)         =         1.920948	     110.062220
	 B(6,4,7)         =         1.909151	     109.386296
	 B(7,10,11)       =         1.934171	     110.819861
	 B(7,10,12)       =         1.956225	     112.083433
	 B(7,10,13)       =         1.937071	     110.986003
	 B(8,7,9)         =         1.850357	     106.017621
	 B(8,7,10)        =         1.896398	     108.655578
	 B(9,7,10)        =         1.908440	     109.345534
	 B(11,10,12)      =         1.874090	     107.377474
	 B(11,10,13)      =         1.879816	     107.705526
	 B(12,10,13)      =         1.879245	     107.672792
	 L(14,15,20)      =         3.050334	     174.771263
	 l(14,15,20)      =         3.141593	     180.000000
	 B(15,20,16)      =         1.945893	     111.491438
	 B(15,20,21)      =         1.978072	     113.335196
	 B(16,20,21)      =         1.915417	     109.745287
	 B(17,16,18)      =         1.906462	     109.232230
	 B(17,16,19)      =         1.898835	     108.795217
	 B(17,16,20)      =         1.943143	     111.333895
	 B(18,16,19)      =         1.896841	     108.681000
	 B(18,16,20)      =         1.949365	     111.690401
	 B(19,16,20)      =         1.867726	     107.012814
	 D(1,4,7,8)       =        -3.004169	    -172.126232
	 D(1,4,7,9)       =        -0.993774	     -56.939058
	 D(1,4,7,10)      =         1.158196	      66.359736
	 D(2,1,4,5)       =         3.113058	     178.365110
	 D(2,1,4,6)       =        -1.166166	     -66.816408
	 D(2,1,4,7)       =         0.959181	      54.957008
	 D(2,1,14,15)     =        -1.075243	     -61.606872
	 D(3,1,4,5)       =         1.055274	      60.462755
	 D(3,1,4,6)       =         3.059235	     175.281237
	 D(3,1,4,7)       =        -1.098604	     -62.945347
	 D(3,1,14,15)     =         0.994612	      56.987048
	 D(4,1,14,15)     =         3.110459	     178.216179
	 D(4,7,10,11)     =         3.061165	     175.391814
	 D(4,7,10,12)     =        -1.128656	     -64.667214
	 D(4,7,10,13)     =         0.973283	      55.765004
	 D(5,4,1,14)      =        -1.059164	     -60.685619
	 D(5,4,7,8)       =         1.139753	      65.303024
	 D(5,4,7,9)       =        -3.133037	    -179.509802
	 D(5,4,7,10)      =        -0.981067	     -56.211008
	 D(6,4,1,14)      =         0.944797	      54.132862
	 D(6,4,7,8)       =        -0.896977	     -51.393011
	 D(6,4,7,9)       =         1.113418	      63.794163
	 D(6,4,7,10)      =        -3.017797	    -172.907043
	 D(7,4,1,14)      =         3.070144	     175.906279
	 D(8,7,10,11)     =         0.943492	      54.058094
	 D(8,7,10,12)     =         3.036857	     173.999066
	 D(8,7,10,13)     =        -1.144390	     -65.568715
	 D(9,7,10,11)     =        -1.068694	     -61.231636
	 D(9,7,10,12)     =         1.024671	      58.709336
	 D(9,7,10,13)     =         3.126610	     179.141555
	 D(15,20,16,17)   =        -2.990102	    -171.320222
	 D(15,20,16,18)   =         1.156683	      66.273054
	 D(15,20,16,19)   =        -0.917259	     -52.555072
	 D(17,16,20,21)   =         1.086723	      62.264641
	 D(18,16,20,21)   =        -1.049677	     -60.142083
	 D(19,16,20,21)   =        -3.123619	    -178.970209
	 D(1,14,20,16)    =         2.071781	     118.704288
	 D(1,14,20,21)    =        -2.053557	    -117.660121

	Current energy   :      -347.1873536127

	Energy change for the previous step:
		Projected    :        -0.0000000372
		Actual       :         0.0000002250

	Performing BFGS update.
	Previous computed or guess Hessian on step 1.
	Steps to be used in Hessian update: 1
	Taking RFO optimization step.
	Going to follow RFO solution 1.
	Using RFO vector 1.
	Norm of target step-size    0.00370
	Projected energy change by RFO approximation:         0.0000006416

	Back-transformation to cartesian coordinates...
	Successfully converged to displaced geometry.

	--- Internal Coordinate Step in ANG or DEG, aJ/ANG or AJ/DEG ---
	 ---------------------------------------------------------------------------
	   Coordinate                Previous        Force       Change         New 
	   ----------                --------       ------       ------       ------
	    1 H(15,20)        =      1.999872    -0.000024     0.000035     1.999907
	    2 R(1,2)          =      1.090761     0.000019     0.000012     1.090773
	    3 R(1,3)          =      1.088342    -0.000007     0.000012     1.088354
	    4 R(1,4)          =      1.520821     0.000060     0.000008     1.520830
	    5 R(1,14)         =      1.399289    -0.000010    -0.000031     1.399259
	    6 R(4,5)          =      1.087198     0.000021     0.000007     1.087206
	    7 R(4,6)          =      1.086262    -0.000016     0.000006     1.086268
	    8 R(4,7)          =      1.532120    -0.000047     0.000010     1.532130
	    9 R(7,8)          =      1.086875    -0.000008     0.000005     1.086880
	   10 R(7,9)          =      1.088453     0.000032     0.000006     1.088458
	   11 R(7,10)         =      1.530630    -0.000013     0.000006     1.530637
	   12 R(10,11)        =      1.085822    -0.000001     0.000004     1.085825
	   13 R(10,12)        =      1.085204     0.000024     0.000004     1.085208
	   14 R(10,13)        =      1.086615     0.000023     0.000004     1.086619
	   15 R(14,15)        =      0.950832     0.000007     0.000001     0.950833
	   16 R(16,17)        =      1.085516    -0.000026     0.000008     1.085523
	   17 R(16,18)        =      1.085394    -0.000043     0.000009     1.085402
	   18 R(16,19)        =      1.080043     0.000007     0.000004     1.080047
	   19 R(16,20)        =      1.406495     0.000651    -0.000030     1.406465
	   20 R(20,21)        =      0.947002     0.000120     0.000004     0.947006
	   21 B(1,4,5)        =    108.508847     0.000003     0.014530   108.523377
	   22 B(1,4,6)        =    107.493072    -0.000001    -0.006628   107.486444
	   23 B(1,4,7)        =    114.547913    -0.000001    -0.002574   114.545339
	   24 B(1,14,15)      =    109.446363     0.000002     0.003712   109.450074
	   25 B(2,1,3)        =    107.107304     0.000000     0.005155   107.112459
	   26 B(2,1,4)        =    109.616191     0.000003     0.017294   109.633486
	   27 B(2,1,14)       =    110.853428    -0.000002    -0.009590   110.843838
	   28 B(3,1,4)        =    110.641443    -0.000002    -0.012267   110.629177
	   29 B(3,1,14)       =    110.511220     0.000000    -0.000987   110.510233
	   30 B(4,1,14)       =    108.122163     0.000001     0.000407   108.122569
	   31 B(4,7,8)        =    108.326151     0.000002     0.003570   108.329720
	   32 B(4,7,9)        =    109.490635    -0.000002    -0.011011   109.479625
	   33 B(4,7,10)       =    114.645606    -0.000001    -0.002196   114.643409
	   34 B(5,4,6)        =    106.511209     0.000000     0.003958   106.515167
	   35 B(5,4,7)        =    110.062220    -0.000002    -0.010367   110.051853
	   36 B(6,4,7)        =    109.386296     0.000001     0.001723   109.388019
	   37 B(7,10,11)      =    110.819861     0.000000    -0.000258   110.819604
	   38 B(7,10,12)      =    112.083433    -0.000005    -0.021703   112.061730
	   39 B(7,10,13)      =    110.986003     0.000003     0.015150   111.001153
	   40 B(8,7,9)        =    106.017621     0.000000     0.006744   106.024364
	   41 B(8,7,10)       =    108.655578    -0.000001    -0.008214   108.647363
	   42 B(9,7,10)       =    109.345534     0.000002     0.011771   109.357305
	   43 B(11,10,12)     =    107.377474     0.000002     0.004858   107.382333
	   44 B(11,10,13)     =    107.705526    -0.000001    -0.008603   107.696923
	   45 B(12,10,13)     =    107.672792     0.000001     0.010900   107.683692
	   46 L(14,15,20)     =    174.771263    -0.000002     0.011385   174.782648
	   47 l(14,15,20)     =    180.000000     0.000000     0.000000   180.000000
	   48 B(15,20,16)     =    111.491438    -0.000004     0.043346   111.534785
	   49 B(15,20,21)     =    113.335196    -0.000003    -0.038534   113.296662
	   50 B(16,20,21)     =    109.745287     0.000006     0.076643   109.821930
	   51 B(17,16,18)     =    109.232230    -0.000001    -0.006014   109.226216
	   52 B(17,16,19)     =    108.795217    -0.000005    -0.021029   108.774188
	   53 B(17,16,20)     =    111.333895     0.000005     0.024503   111.358399
	   54 B(18,16,19)     =    108.681000    -0.000002    -0.007417   108.673583
	   55 B(18,16,20)     =    111.690401    -0.000004    -0.013063   111.677338
	   56 B(19,16,20)     =    107.012814     0.000006     0.022351   107.035165
	   57 D(1,4,7,8)      =   -172.126232    -0.000000    -0.042081  -172.168313
	   58 D(1,4,7,9)      =    -56.939058     0.000000    -0.037988   -56.977046
	   59 D(1,4,7,10)     =     66.359736     0.000000    -0.032675    66.327061
	   60 D(2,1,4,5)      =    178.365110    -0.000000    -0.003864   178.361246
	   61 D(2,1,4,6)      =    -66.816408     0.000000     0.004642   -66.811766
	   62 D(2,1,4,7)      =     54.957008     0.000000     0.000310    54.957318
	   63 D(2,1,14,15)    =    -61.606872     0.000000     0.005170   -61.601702
	   64 D(3,1,4,5)      =     60.462755    -0.000000    -0.013428    60.449327
	   65 D(3,1,4,6)      =    175.281237    -0.000000    -0.004922   175.276315
	   66 D(3,1,4,7)      =    -62.945347     0.000000    -0.009254   -62.954601
	   67 D(3,1,14,15)    =     56.987048     0.000000     0.004874    56.991922
	   68 D(4,1,14,15)    =    178.216179    -0.000000    -0.010549   178.205630
	   69 D(4,7,10,11)    =    175.391814     0.000000    -0.003745   175.388068
	   70 D(4,7,10,12)    =    -64.667214     0.000000    -0.012337   -64.679551
	   71 D(4,7,10,13)    =     55.765004     0.000000    -0.002705    55.762300
	   72 D(5,4,1,14)     =    -60.685619    -0.000000    -0.004991   -60.690610
	   73 D(5,4,7,8)      =     65.303024    -0.000000    -0.051313    65.251711
	   74 D(5,4,7,9)      =   -179.509802    -0.000000    -0.047220  -179.557022
	   75 D(5,4,7,10)     =    -56.211008     0.000000    -0.041907   -56.252915
	   76 D(6,4,1,14)     =     54.132862     0.000000     0.003516    54.136378
	   77 D(6,4,7,8)      =    -51.393011    -0.000000    -0.051129   -51.444140
	   78 D(6,4,7,9)      =     63.794163    -0.000000    -0.047036    63.747127
	   79 D(6,4,7,10)     =   -172.907043     0.000000    -0.041723  -172.948766
	   80 D(7,4,1,14)     =    175.906279     0.000000    -0.000817   175.905462
	   81 D(8,7,10,11)    =     54.058094     0.000000    -0.000771    54.057324
	   82 D(8,7,10,12)    =    173.999066    -0.000000    -0.009362   173.989704
	   83 D(8,7,10,13)    =    -65.568715     0.000000     0.000270   -65.568445
	   84 D(9,7,10,11)    =    -61.231636    -0.000000    -0.010637   -61.242273
	   85 D(9,7,10,12)    =     58.709336    -0.000000    -0.019229    58.690108
	   86 D(9,7,10,13)    =    179.141555    -0.000000    -0.009596   179.131959
	   87 D(15,20,16,17)  =   -171.320222    -0.000000     0.018852  -171.301370
	   88 D(15,20,16,18)  =     66.273054    -0.000000     0.018348    66.291402
	   89 D(15,20,16,19)  =    -52.555072    -0.000000     0.020888   -52.534184
	   90 D(17,16,20,21)  =     62.264641     0.000000    -0.020799    62.243842
	   91 D(18,16,20,21)  =    -60.142083     0.000000    -0.021303   -60.163386
	   92 D(19,16,20,21)  =   -178.970209     0.000000    -0.018763  -178.988972
	   93 D(1,14,20,16)   =    118.704288    -0.000002    -0.049851   118.654436
	   94 D(1,14,20,21)   =   -117.660121     0.000002     0.047221  -117.612901
	 ---------------------------------------------------------------------------
	Successfully symmetrized geometry.

  ==> Convergence Check <==

  Measures of convergence in internal coordinates in au.
  Criteria marked as inactive (o), active & met (*), and active & unmet ( ).
  ---------------------------------------------------------------------------------------------
   Step     Total Energy     Delta E     MAX Force     RMS Force      MAX Disp      RMS Disp   
  ---------------------------------------------------------------------------------------------
    Convergence Criteria             o    1.50e-05 *    1.00e-05 *    6.00e-05 *    4.00e-05 *
  ---------------------------------------------------------------------------------------------
      2    -347.18735361    2.25e-07 o    1.26e-04      3.06e-05      1.34e-03      3.57e-04    ~
  ---------------------------------------------------------------------------------------------

	Writing optimization data to binary file.
	Structure for next step:
	Cartesian Geometry (in Angstrom)
	    C     0.3384248650  -0.3384018787  -0.0269700957
	    H     0.0358188965  -0.4238952707  -1.0714341911
	    H     1.1232264170   0.4142822860   0.0184890179
	    C     0.8544033764  -1.6810071721   0.4670943110
	    H     1.1776437745  -1.5682977743   1.4989996715
	    H     0.0138451602  -2.3689523970   0.4801955720
	    C     1.9864300336  -2.2771146651  -0.3758736666
	    H     2.1807147968  -3.2864117446  -0.0224892405
	    H     1.6557587097  -2.3785541034  -1.4079143069
	    C     3.2955388834  -1.4848665459  -0.3381128393
	    H     4.0757546460  -2.0022483759  -0.8882001824
	    H     3.1880249829  -0.4987275106  -0.7781658896
	    H     3.6424870136  -1.3544627614   0.6833389372
	    O    -0.7450397762   0.0338679749   0.7764255903
	    H    -1.0654761273   0.8856647690   0.5010249079
	    C    -3.2459939589   2.4192871204  -0.4664906462
	    H    -3.6535655209   3.3160154852  -0.9226976369
	    H    -3.8693337853   2.1308797003   0.3739653577
	    H    -3.2578265658   1.6223268863  -1.1953365671
	    O    -1.9063510525   2.6045772060  -0.0802661461
	    H    -1.8521062900   3.2878553368   0.5731932955
			--------------------------
			 OPTKING Finished Execution 
			--------------------------

    Structure for next step:
    Molecular point group: c1
    Full point group: C1

    Geometry (in Angstrom), charge = 0, multiplicity = 1:

    C            0.340701972671    -0.334768824873    -0.027694563055
    H            0.038096004090    -0.420262216855    -1.072158658494
    H            1.125503524621     0.417915339793     0.017764550524
    C            0.856680484052    -1.677374118312     0.466369843627
    H            1.179920882158    -1.564664720477     1.498275204111
    H            0.016122267814    -2.365319343123     0.479471104609
    C            1.988707141219    -2.273481611215    -0.376598133917
    H            2.182991904377    -3.282778690807    -0.023213707814
    H            1.658035817288    -2.374921049550    -1.408638774284
    C            3.297815991053    -1.481233492044    -0.338837306669
    H            4.078031753644    -1.998615322019    -0.888924649792
    H            3.190302090489    -0.495094456771    -0.778890356971
    H            3.644764121250    -1.350829707582     0.682614469899
    O           -0.742762668588     0.037501028694     0.775701122958
    H           -1.063199019701     0.889297822886     0.500300440560
    C           -3.243716851250     2.422920174226    -0.467215113523
    H           -3.651288413228     3.319648539045    -0.923422104269
    H           -3.867056677722     2.134512754140     0.373240890362
    H           -3.255549458159     1.625959940111    -1.196061034438
    O           -1.904073944877     2.608210259814    -0.080990613458
    H           -1.849829182397     3.291488390632     0.572468828161

gradient() will perform analytic gradient computation.

*** tstart() called on wr86
*** at Fri Oct  5 14:58:00 2018

   => Loading Basis Set <=

    Name: 6-31G(D)
    Role: ORBITAL
    Keyword: BASIS
    atoms 1, 4, 7, 10, 16                     entry C          line   111 file /usr/local/hpc1/software_molmod/psi4/psi4conda/share/psi4/basis/6-31g_d_.gbs 
    atoms 2-3, 5-6, 8-9, 11-13, 15, 17-19, 21 entry H          line    44 file /usr/local/hpc1/software_molmod/psi4/psi4conda/share/psi4/basis/6-31g_d_.gbs 
    atoms 14, 20                              entry O          line   145 file /usr/local/hpc1/software_molmod/psi4/psi4conda/share/psi4/basis/6-31g_d_.gbs 


         ---------------------------------------------------------
                                   SCF
            by Justin Turney, Rob Parrish, Andy Simmonett
                             and Daniel Smith
                              RHF Reference
                       16 Threads,  95367 MiB Core
         ---------------------------------------------------------

  ==> Geometry <==

    Molecular point group: c1
    Full point group: C1

    Geometry (in Angstrom), charge = 0, multiplicity = 1:

       Center              X                  Y                   Z               Mass       
[...]
	 R(20,X)          =        -3.597997	      -1.903978
	 R(20,Y)          =         4.928654	       2.608131
	 R(20,Z)          =        -0.153482	      -0.081219
	 R(21,X)          =        -3.495876	      -1.849938
	 R(21,Y)          =         6.219477	       3.291206
	 R(21,Z)          =         1.081804	       0.572466

	Current energy   :      -347.1873538301

	Energy change for the previous step:
		Projected    :        -0.0000000023
		Actual       :        -0.0000000015

	Performing BFGS update.
	Previous computed or guess Hessian on step 1.
	Denominators (dg)(dq) or (dq)(dq) are very small.
	 Skipping Hessian update for step 8.
	Denominators (dg)(dq) or (dq)(dq) are very small.
	 Skipping Hessian update for step 7.
	Denominators (dg)(dq) or (dq)(dq) are very small.
	 Skipping Hessian update for step 6.
	Denominators (dg)(dq) or (dq)(dq) are very small.
	 Skipping Hessian update for step 5.
	Denominators (dg)(dq) or (dq)(dq) are very small.
	 Skipping Hessian update for step 4.
	Denominators (dg)(dq) or (dq)(dq) are very small.
	 Skipping Hessian update for step 3.
	Denominators (dg)(dq) or (dq)(dq) are very small.
	 Skipping Hessian update for step 2.
	Steps to be used in Hessian update: 1
	Taking RFO optimization step.
	Going to follow RFO solution 1.
	Using RFO vector 1.
	Norm of target step-size    0.00016
	Projected energy change by RFO approximation:        -0.0000000016

	Back-transformation to cartesian coordinates...
	Successfully converged to displaced geometry.

	--- Internal Coordinate Step in ANG or DEG, aJ/ANG or AJ/DEG ---
	 ---------------------------------------------------------------------------
	   Coordinate                Previous        Force       Change         New 
	   ----------                --------       ------       ------       ------
	    1 H(15,20)        =      1.999854     0.000015     0.000003     1.999857
	    2 R(1,2)          =      1.090754     0.000007    -0.000000     1.090754
	    3 R(1,3)          =      1.088337     0.000009    -0.000000     1.088337
	    4 R(1,4)          =      1.520828     0.000005     0.000000     1.520828
	    5 R(1,14)         =      1.399304    -0.000031     0.000000     1.399304
	    6 R(4,5)          =      1.087194     0.000007    -0.000000     1.087194
	    7 R(4,6)          =      1.086259     0.000004    -0.000000     1.086259
	    8 R(4,7)          =      1.532137    -0.000001    -0.000000     1.532137
	    9 R(7,8)          =      1.086875     0.000004    -0.000000     1.086875
	   10 R(7,9)          =      1.088451     0.000003    -0.000000     1.088451
	   11 R(7,10)         =      1.530638    -0.000002    -0.000000     1.530638
	   12 R(10,11)        =      1.085822     0.000002    -0.000000     1.085822
	   13 R(10,12)        =      1.085203     0.000004    -0.000000     1.085203
	   14 R(10,13)        =      1.086613     0.000002    -0.000000     1.086613
	   15 R(14,15)        =      0.950835     0.000010    -0.000000     0.950835
	   16 R(16,17)        =      1.085511     0.000008    -0.000000     1.085511
	   17 R(16,18)        =      1.085388     0.000012    -0.000000     1.085388
	   18 R(16,19)        =      1.080042    -0.000004    -0.000000     1.080042
	   19 R(16,20)        =      1.406505    -0.000020     0.000000     1.406505
	   20 R(20,21)        =      0.947003     0.000003     0.000000     0.947003
	   21 B(1,4,5)        =    108.521840     0.000000    -0.000081   108.521759
	   22 B(1,4,6)        =    107.487670    -0.000000    -0.000067   107.487603
	   23 B(1,4,7)        =    114.544366     0.000000     0.000152   114.544518
	   24 B(1,14,15)      =    109.461952    -0.000000     0.000230   109.462182
	   25 B(2,1,3)        =    107.113973    -0.000000    -0.000017   107.113956
	   26 B(2,1,4)        =    109.629406     0.000000     0.000059   109.629466
	   27 B(2,1,14)       =    110.843873     0.000000     0.000065   110.843938
	   28 B(3,1,4)        =    110.633405    -0.000000     0.000070   110.633474
	   29 B(3,1,14)       =    110.509934     0.000000     0.000037   110.509971
	   30 B(4,1,14)       =    108.121190    -0.000000    -0.000208   108.120981
	   31 B(4,7,8)        =    108.330025     0.000000    -0.000037   108.329988
	   32 B(4,7,9)        =    109.482276    -0.000000     0.000039   109.482316
	   33 B(4,7,10)       =    114.643555     0.000000    -0.000002   114.643553
	   34 B(5,4,6)        =    106.515738    -0.000000    -0.000009   106.515729
	   35 B(5,4,7)        =    110.052929    -0.000000    -0.000007   110.052922
	   36 B(6,4,7)        =    109.387763     0.000000    -0.000000   109.387763
	   37 B(7,10,11)      =    110.818529     0.000000    -0.000008   110.818521
	   38 B(7,10,12)      =    112.066695    -0.000000     0.000050   112.066745
	   39 B(7,10,13)      =    110.995385     0.000000    -0.000055   110.995330
	   40 B(8,7,9)        =    106.023655     0.000000     0.000004   106.023659
	   41 B(8,7,10)       =    108.647537    -0.000000    -0.000045   108.647493
	   42 B(9,7,10)       =    109.354676     0.000000     0.000040   109.354717
	   43 B(11,10,12)     =    107.382229     0.000000     0.000005   107.382233
	   44 B(11,10,13)     =    107.699528    -0.000000     0.000009   107.699537
	   45 B(12,10,13)     =    107.683198     0.000000     0.000000   107.683198
	   46 L(14,15,20)     =    174.777185    -0.000000    -0.001069   174.776116
	   47 l(14,15,20)     =    180.000000    -0.000000     0.000000   180.000000
	   48 B(15,20,16)     =    111.540911     0.000000     0.000646   111.541557
	   49 B(15,20,21)     =    113.269833    -0.000000    -0.002864   113.266969
	   50 B(16,20,21)     =    109.800736     0.000000    -0.000163   109.800573
	   51 B(17,16,18)     =    109.229423    -0.000000     0.000007   109.229431
	   52 B(17,16,19)     =    108.780273    -0.000000     0.000037   108.780309
	   53 B(17,16,20)     =    111.353962     0.000000    -0.000044   111.353919
	   54 B(18,16,19)     =    108.676439    -0.000000     0.000010   108.676449
	   55 B(18,16,20)     =    111.679772    -0.000000    -0.000026   111.679746
	   56 B(19,16,20)     =    107.025109     0.000000     0.000020   107.025129
	   57 D(1,4,7,8)      =   -172.172572    -0.000000    -0.000298  -172.172871
	   58 D(1,4,7,9)      =    -56.980568    -0.000000    -0.000294   -56.980862
	   59 D(1,4,7,10)     =     66.322254     0.000000    -0.000212    66.322042
	   60 D(2,1,4,5)      =    178.364023    -0.000000     0.000208   178.364232
	   61 D(2,1,4,6)      =    -66.808463    -0.000000     0.000123   -66.808340
	   62 D(2,1,4,7)      =     54.960556    -0.000000     0.000173    54.960729
	   63 D(2,1,14,15)    =    -61.623274    -0.000000    -0.001536   -61.624810
	   64 D(3,1,4,5)      =     60.450205     0.000000     0.000151    60.450356
	   65 D(3,1,4,6)      =    175.277719     0.000000     0.000065   175.277784
	   66 D(3,1,4,7)      =    -62.953262     0.000000     0.000115   -62.953147
	   67 D(3,1,14,15)    =     56.972065    -0.000000    -0.001492    56.970573
	   68 D(4,1,14,15)    =    178.189912    -0.000000    -0.001516   178.188395
	   69 D(4,7,10,11)    =    175.389478     0.000000     0.000179   175.389657
	   70 D(4,7,10,12)    =    -64.675674    -0.000000     0.000212   -64.675461
	   71 D(4,7,10,13)    =     55.764927     0.000000     0.000208    55.765135
	   72 D(5,4,1,14)     =    -60.691064     0.000000     0.000196   -60.690868
	   73 D(5,4,7,8)      =     65.249348    -0.000000    -0.000297    65.249051
	   74 D(5,4,7,9)      =   -179.558648    -0.000000    -0.000292  -179.558940
	   75 D(5,4,7,10)     =    -56.255826     0.000000    -0.000210   -56.256036
	   76 D(6,4,1,14)     =     54.136450     0.000000     0.000110    54.136560
	   77 D(6,4,7,8)      =    -51.447665    -0.000000    -0.000282   -51.447947
	   78 D(6,4,7,9)      =     63.744339    -0.000000    -0.000277    63.744062
	   79 D(6,4,7,10)     =   -172.952839     0.000000    -0.000195  -172.953034
	   80 D(7,4,1,14)     =    175.905469     0.000000     0.000160   175.905629
	   81 D(8,7,10,11)    =     54.058113     0.000000     0.000261    54.058374
	   82 D(8,7,10,12)    =    173.992961     0.000000     0.000295   173.993256
	   83 D(8,7,10,13)    =    -65.566438     0.000000     0.000291   -65.566147
	   84 D(9,7,10,11)    =    -61.239319     0.000000     0.000260   -61.239059
	   85 D(9,7,10,12)    =     58.695530    -0.000000     0.000293    58.695823
	   86 D(9,7,10,13)    =    179.136130     0.000000     0.000290   179.136420
	   87 D(15,20,16,17)  =   -171.325181    -0.000000    -0.002045  -171.327226
	   88 D(15,20,16,18)  =     66.264894    -0.000000    -0.002004    66.262890
	   89 D(15,20,16,19)  =    -52.559294    -0.000000    -0.002014   -52.561307
	   90 D(17,16,20,21)  =     62.266537    -0.000000     0.001336    62.267873
	   91 D(18,16,20,21)  =    -60.143388     0.000000     0.001377   -60.142011
	   92 D(19,16,20,21)  =   -178.967576     0.000000     0.001368  -178.966208
	   93 D(1,14,20,16)   =    118.669398    -0.000000     0.000810   118.670208
	   94 D(1,14,20,21)   =   -117.635688     0.000000    -0.000692  -117.636381
	   95 R(1,X)          =      0.340728    -0.000018    -0.000003     0.340725
	   96 R(1,Y)          =     -0.334749     0.000008     0.000002    -0.334747
	   97 R(1,Z)          =     -0.027658     0.000002     0.000002    -0.027656
	   98 R(2,X)          =      0.038131    -0.000019    -0.000005     0.038126
	   99 R(2,Y)          =     -0.420307     0.000023     0.000005    -0.420302
	  100 R(2,Z)          =     -1.072101    -0.000005     0.000003    -1.072098
	  101 R(3,X)          =      1.125493    -0.000002    -0.000004     1.125490
	  102 R(3,Y)          =      0.417950     0.000003     0.000003     0.417953
	  103 R(3,Z)          =      0.017789     0.000009     0.000003     0.017792
	  104 R(4,X)          =      0.856650    -0.000004    -0.000002     0.856647
	  105 R(4,Y)          =     -1.677374     0.000004     0.000001    -1.677373
	  106 R(4,Z)          =      0.466406    -0.000006    -0.000001     0.466405
	  107 R(5,X)          =      1.179851     0.000002    -0.000005     1.179847
	  108 R(5,Y)          =     -1.564660    -0.000001    -0.000000    -1.564660
	  109 R(5,Z)          =      1.498311     0.000001    -0.000000     1.498311
	  110 R(6,X)          =      0.016093    -0.000007    -0.000003     0.016090
	  111 R(6,Y)          =     -2.365307     0.000001     0.000002    -2.365306
	  112 R(6,Z)          =      0.479472    -0.000006    -0.000003     0.479469
	  113 R(7,X)          =      1.988695    -0.000002    -0.000001     1.988694
	  114 R(7,Y)          =     -2.273484     0.000004     0.000001    -2.273483
	  115 R(7,Z)          =     -0.376547    -0.000002     0.000001    -0.376546
	  116 R(8,X)          =      2.183006     0.000000     0.000000     2.183006
	  117 R(8,Y)          =     -3.282762     0.000002     0.000003    -3.282760
	  118 R(8,Z)          =     -0.023139     0.000002     0.000005    -0.023134
	  119 R(9,X)          =      1.658078    -0.000009     0.000000     1.658079
	  120 R(9,Y)          =     -2.374967     0.000002    -0.000003    -2.374970
	  121 R(9,Z)          =     -1.408594    -0.000003     0.000001    -1.408592
	  122 R(10,X)         =      3.297785    -0.000002    -0.000002     3.297783
	  123 R(10,Y)         =     -1.481200    -0.000000     0.000003    -1.481197
	  124 R(10,Z)         =     -0.338822     0.000005     0.000001    -0.338821
	  125 R(11,X)         =      4.077990     0.000002    -0.000002     4.077988
	  126 R(11,Y)         =     -1.998584     0.000003     0.000004    -1.998579
	  127 R(11,Z)         =     -0.888917     0.000004     0.000000    -0.888917
	  128 R(12,X)         =      3.190318    -0.000011    -0.000003     3.190315
	  129 R(12,Y)         =     -0.495041     0.000001     0.000003    -0.495037
	  130 R(12,Z)         =     -0.778830     0.000000     0.000003    -0.778827
	  131 R(13,X)         =      3.644669     0.000010    -0.000002     3.644667
	  132 R(13,Y)         =     -1.350845     0.000006     0.000001    -1.350844
	  133 R(13,Z)         =      0.682651     0.000002     0.000001     0.682652
	  134 R(14,X)         =     -0.742787     0.000015    -0.000001    -0.742788
	  135 R(14,Y)         =      0.037524    -0.000016    -0.000003     0.037520
	  136 R(14,Z)         =      0.775746     0.000005     0.000007     0.775753
	  137 R(15,X)         =     -1.063190     0.000021     0.000009    -1.063182
	  138 R(15,Y)         =      0.889437     0.000006     0.000007     0.889444
	  139 R(15,Z)         =      0.500659     0.000030     0.000030     0.500689
	  140 R(16,X)         =     -3.243750     0.000014     0.000000    -3.243749
	  141 R(16,Y)         =      2.422941    -0.000010    -0.000001     2.422940
	  142 R(16,Z)         =     -0.467189    -0.000016    -0.000003    -0.467192
	  143 R(17,X)         =     -3.651263    -0.000004    -0.000002    -3.651264
	  144 R(17,Y)         =      3.319729    -0.000004     0.000003     3.319732
	  145 R(17,Z)         =     -0.923301    -0.000008     0.000006    -0.923295
	  146 R(18,X)         =     -3.866966     0.000016     0.000010    -3.866955
	  147 R(18,Y)         =      2.134541    -0.000007    -0.000001     2.134539
	  148 R(18,Z)         =      0.373343     0.000002     0.000004     0.373347
	  149 R(19,X)         =     -3.255598    -0.000035    -0.000012    -3.255610
	  150 R(19,Y)         =      1.625983    -0.000001     0.000002     1.625985
	  151 R(19,Z)         =     -1.196029    -0.000019    -0.000006    -1.196035
	  152 R(20,X)         =     -1.903978    -0.000011     0.000006    -1.903972
	  153 R(20,Y)         =      2.608131    -0.000004    -0.000007     2.608124
	  154 R(20,Z)         =     -0.081219    -0.000006    -0.000019    -0.081238
	  155 R(21,X)         =     -1.849938     0.000045     0.000012    -1.849926
	  156 R(21,Y)         =      3.291206    -0.000017    -0.000024     3.291182
	  157 R(21,Z)         =      0.572466     0.000007    -0.000002     0.572464
	 ---------------------------------------------------------------------------
	Successfully symmetrized geometry.

  ==> Convergence Check <==

  Measures of convergence in internal coordinates in au.
  Criteria marked as inactive (o), active & met (*), and active & unmet ( ).
  ---------------------------------------------------------------------------------------------
   Step     Total Energy     Delta E     MAX Force     RMS Force      MAX Disp      RMS Disp   
  ---------------------------------------------------------------------------------------------
    Convergence Criteria             o    1.50e-05 *    1.00e-05 *    6.00e-05 *    4.00e-05 *
  ---------------------------------------------------------------------------------------------
      9    -347.18735383   -1.50e-09 o    5.47e-06 *    1.31e-06 *    5.64e-05 *    1.18e-05 *  ~
  ---------------------------------------------------------------------------------------------


  **** Optimization is complete! (in 9 steps) ****

  ==> Optimization Summary <==

  Measures of convergence in internal coordinates in au.
  --------------------------------------------------------------------------------------------------------------- ~
   Step         Total Energy             Delta E       MAX Force       RMS Force        MAX Disp        RMS Disp  ~
  --------------------------------------------------------------------------------------------------------------- ~
      1    -347.187353788915   -347.187353788915      0.00001850      0.00000473      0.00019560      0.00004510  ~
      2    -347.187353809620     -0.000000020705      0.00001089      0.00000218      0.00011599      0.00003363  ~
      3    -347.187353816994     -0.000000007374      0.00000872      0.00000160      0.00008706      0.00001846  ~
      4    -347.187353820371     -0.000000003377      0.00000726      0.00000147      0.00007980      0.00001624  ~
      5    -347.187353823211     -0.000000002840      0.00000629      0.00000141      0.00007401      0.00001497  ~
      6    -347.187353825490     -0.000000002279      0.00000549      0.00000138      0.00006909      0.00001405  ~
      7    -347.187353827583     -0.000000002092      0.00000513      0.00000135      0.00006447      0.00001322  ~
      8    -347.187353828567     -0.000000000984      0.00000535      0.00000133      0.00006030      0.00001246  ~
      9    -347.187353830068     -0.000000001502      0.00000547      0.00000131      0.00005637      0.00001175  ~
  --------------------------------------------------------------------------------------------------------------- ~

	Writing optimization data to binary file.
	Final energy is   -347.1873538300682
	Final (previous) structure:
	Cartesian Geometry (in Angstrom)
	    C     0.3407281273  -0.3347489636  -0.0276581881
	    H     0.0381305608  -0.4203069761  -1.0721005468
	    H     1.1254932371   0.4179504930   0.0177891114
	    C     0.8566496932  -1.6773743298   0.4664059153
	    H     1.1798512468  -1.5646597663   1.4983108549
	    H     0.0160928661  -2.3653074446   0.4794724550
	    C     1.9886950900  -2.2734836357  -0.3765474940
	    H     2.1830056261  -3.2827624599  -0.0231388353
	    H     1.6580782305  -2.3749669951  -1.4085936627
	    C     3.2977848621  -1.4811998163  -0.3388218609
	    H     4.0779895929  -1.9985835260  -0.8889172884
	    H     3.1903176047  -0.4950407155  -0.7788304201
	    H     3.6446693012  -1.3508453176   0.6826505547
	    O    -0.7427873000   0.0375236274   0.7757458276
	    H    -1.0631901311   0.8894368945   0.5006587709
	    C    -3.2437497037   2.4229408266  -0.4671888947
	    H    -3.6512626500   3.3197291467  -0.9233009861
	    H    -3.8669655877   2.1345406499   0.3733432286
	    H    -3.2555982769   1.6259829940  -1.1960289685
	    O    -1.9039779634   2.6081314469  -0.0812190276
	    H    -1.8499378732   3.2912057257   0.5724658740
	Saving final (previous) structure.
	Removing binary optimization data file.
			--------------------------
			 OPTKING Finished Execution 
			--------------------------

    Final optimized geometry and variables:
    Molecular point group: c1
    Full point group: C1

    Geometry (in Angstrom), charge = 0, multiplicity = 1:

    C            0.340728127337    -0.334748963608    -0.027658188083
    H            0.038130560824    -0.420306976059    -1.072100546837
    H            1.125493237095     0.417950492977     0.017789111372
    C            0.856649693196    -1.677374329773     0.466405915250
    H            1.179851246784    -1.564659766290     1.498310854852
    H            0.016092866055    -2.365307444621     0.479472454968
    C            1.988695089985    -2.273483635716    -0.376547494005
    H            2.183005626125    -3.282762459918    -0.023138835283
    H            1.658078230499    -2.374966995123    -1.408593662738
    C            3.297784862121    -1.481199816286    -0.338821860907
    H            4.077989592940    -1.998583526007    -0.888917288367
    H            3.190317604679    -0.495040715452    -0.778830420100
    H            3.644669301237    -1.350845317650     0.682650554742
    O           -0.742787300042     0.037523627406     0.775745827635
    H           -1.063190131125     0.889436894473     0.500658770949
    C           -3.243749703666     2.422940826618    -0.467188894733
    H           -3.651262650008     3.319729146715    -0.923300986054
    H           -3.866965587738     2.134540649871     0.373343228555
    H           -3.255598276943     1.625982993964    -1.196028968521
    O           -1.903977963404     2.608131446872    -0.081219027568
    H           -1.849937873220     3.291205725726     0.572465873991

	Removing binary optimization data file.
	Cleaning optimization helper files.

    Psi4 stopped on: Friday, 05 October 2018 02:58PM
    Psi4 wall time for execution: 0:00:48.04

*** Psi4 exiting successfully. Buy a developer a beer!
