
    -----------------------------------------------------------------------
          Psi4: An Open-Source Ab Initio Electronic Structure Package
                               Psi4 1.2.1 release

                         Git: Rev {HEAD} 406f4de 


    R. M. Parrish, L. A. Burns, D. G. A. Smith, A. C. Simmonett,
    A. E. DePrince III, E. G. Hohenstein, U. Bozkaya, A. Yu. Sokolov,
    R. Di Remigio, R. M. Richard, J. F. Gonthier, A. M. James,
    H. R. McAlexander, A. Kumar, M. Saitow, X. Wang, B. P. Pritchard,
    P. Verma, H. F. Schaefer III, K. Patkowski, R. A. King, E. F. Valeev,
    F. A. Evangelista, J. M. Turney, T. D. Crawford, and C. D. Sherrill,
    J. Chem. Theory Comput. 13(7) pp 3185--3197 (2017).
    (doi: 10.1021/acs.jctc.7b00174)


                         Additional Contributions by
    P. Kraus, H. Kruse, M. H. Lechner, M. C. Schieber, and R. A. Shaw

    -----------------------------------------------------------------------


    Psi4 started on: Friday, 05 October 2018 02:49PM

    Process ID: 292485
    Host:       wr86
    PSIDATADIR: /usr/local/hpc1/software_molmod/psi4/psi4conda/share/psi4
    Memory:     500.0 MiB
    Threads:    16
    
  ==> Input File <==

--------------------------------------------------------------------------
memory 100 Gb

molecule conf_01 {
0 1
 C          -4.2956319773   1.3929946983  -0.3845364795
 H          -4.0289973531   1.5436056625  -1.4278843286
 H          -3.6233789955   1.9955051766   0.2216836509
 C          -4.1691655340  -0.0741402363  -0.0148714403
 H          -4.4638359266  -0.1930978504   1.0245669142
 H          -4.8766038986  -0.6423242438  -0.6112889688
 C          -2.7533526719  -0.6140163570  -0.2231595344
 H          -2.4632796483  -0.4811338625  -1.2632109580
 H          -2.0496997763  -0.0318200332   0.3684921157
 C          -2.6269938368  -2.0904029762   0.1504445320
 H          -1.6151615105  -2.4495731017  -0.0084644197
 H          -2.8762637062  -2.2524215231   1.1950987678
 H          -3.2948977852  -2.7029364728  -0.4477141935
 O          -5.6317330730   1.7946351834  -0.1617631612
 H          -5.7316536864   2.7119194778  -0.3760417082
 C          -8.4791339855  -0.5017195469  -0.6226118714
 H          -9.1344609402   0.2782127750  -0.2390761820
 H          -8.0141254555  -1.0030471866   0.2239327798
 H          -9.0876086608  -1.2239321560  -1.1514553637
 O          -7.5365874962  -0.0018531624  -1.5216704969
 H          -6.9754340820   0.6205457351  -1.0724696543
}
set globals {
  reference rhf
  g_convergence gau_tight
  basis 6-31G(d)
}
optimize('scf')
--------------------------------------------------------------------------

  Memory set to  93.132 GiB by Python driver.
gradient() will perform analytic gradient computation.

*** tstart() called on wr86
*** at Fri Oct  5 14:49:25 2018

   => Loading Basis Set <=

    Name: 6-31G(D)
    Role: ORBITAL
    Keyword: BASIS
    atoms 1, 4, 7, 10, 16                     entry C          line   111 file /usr/local/hpc1/software_molmod/psi4/psi4conda/share/psi4/basis/6-31g_d_.gbs 
    atoms 2-3, 5-6, 8-9, 11-13, 15, 17-19, 21 entry H          line    44 file /usr/local/hpc1/software_molmod/psi4/psi4conda/share/psi4/basis/6-31g_d_.gbs 
    atoms 14, 20                              entry O          line   145 file /usr/local/hpc1/software_molmod/psi4/psi4conda/share/psi4/basis/6-31g_d_.gbs 


         ---------------------------------------------------------
                                   SCF
            by Justin Turney, Rob Parrish, Andy Simmonett
                             and Daniel Smith
                              RHF Reference
                       16 Threads,  95367 MiB Core
         ---------------------------------------------------------

  ==> Geometry <==

    Molecular point group: c1
    Full point group: C1

    Geometry (in Angstrom), charge = 0, multiplicity = 1:

       Center              X                  Y                   Z               Mass       
    ------------   -----------------  -----------------  -----------------  -----------------
         C            0.862615379959     1.372565634748     0.026916574468    12.000000000000
         H            1.129250004159     1.523176598948    -1.016431274632     1.007825032070
         H            1.534868361759     1.975076113048     0.633136704868     1.007825032070
         C            0.989081823259    -0.094569299852     0.396581613668    12.000000000000
         H            0.694411430659    -0.213526913952     1.436019968168     1.007825032070
         H            0.281643458659    -0.662753307352    -0.199835914832     1.007825032070
         C            2.404894685359    -0.634445420552     0.188293519568    12.000000000000
         H            2.694967708959    -0.501562926052    -0.851757904032     1.007825032070
         H            3.108547580959    -0.052249096752     0.779945169668     1.007825032070
         C            2.531253520459    -2.110832039752     0.561897585968    12.000000000000
         H            3.543085846759    -2.470002165252     0.402988634268     1.007825032070
         H            2.281983651059    -2.272850586652     1.606551821768     1.007825032070
         H            1.863349572059    -2.723365536352    -0.036261139532     1.007825032070
         O           -0.473485715741     1.774206119848     0.249689892768    15.994914619560
         H           -0.573406329141     2.691490414248     0.035411345768     1.007825032070
         C           -3.320886628241    -0.522148610452    -0.211158817432    12.000000000000
         H           -3.976213582941     0.257783711448     0.172376871968     1.007825032070
         H           -2.855878098241    -1.023476250152     0.635385833768     1.007825032070
         H           -3.929361303541    -1.244361219552    -0.740002309732     1.007825032070
         O           -2.378340138941    -0.022282225952    -1.110217442932    15.994914619560
         H           -1.817186724741     0.600116671548    -0.661016600332     1.007825032070

  Running in c1 symmetry.

  Rotational constants: A =      0.09587  B =      0.03169  C =      0.02533 [cm^-1]
  Rotational constants: A =   2874.09729  B =    949.99674  C =    759.28402 [MHz]
  Nuclear repulsion =  318.780734380788545

  Charge       = 0
  Multiplicity = 1
  Electrons    = 60
  Nalpha       = 30
  Nbeta        = 30

  ==> Algorithm <==

  SCF Algorithm Type is DF.
  DIIS enabled.
  MOM disabled.
  Fractional occupation disabled.
  Guess Type is SAD.
  Energy threshold   = 1.00e-08
  Density threshold  = 1.00e-08
  Integral threshold = 0.00e+00

  ==> Primary Basis <==

  Basis Set: 6-31G(D)
    Blend: 6-31G(D)
    Number of shells: 70
    Number of basis function: 133
    Number of Cartesian functions: 133
    Spherical Harmonics?: false
    Max angular momentum: 2

   => Loading Basis Set <=

    Name: (6-31G(D) AUX)
    Role: JKFIT
    Keyword: DF_BASIS_SCF
    atoms 1, 4, 7, 10, 16                     entry C          line   121 file /usr/local/hpc1/software_molmod/psi4/psi4conda/share/psi4/basis/cc-pvdz-jkfit.gbs 
    atoms 2-3, 5-6, 8-9, 11-13, 15, 17-19, 21 entry H          line    51 file /usr/local/hpc1/software_molmod/psi4/psi4conda/share/psi4/basis/cc-pvdz-jkfit.gbs 
    atoms 14, 20                              entry O          line   221 file /usr/local/hpc1/software_molmod/psi4/psi4conda/share/psi4/basis/cc-pvdz-jkfit.gbs 

  ==> Pre-Iterations <==

   -------------------------------------------------------
    Irrep   Nso     Nmo     Nalpha   Nbeta   Ndocc  Nsocc
   -------------------------------------------------------
     A        133     133       0       0       0       0
   -------------------------------------------------------
    Total     133     133      30      30      30       0
   -------------------------------------------------------

  ==> Integral Setup <==

  ==> DiskDFJK: Density-Fitted J/K Matrices <==

    J tasked:                  Yes
    K tasked:                  Yes
    wK tasked:                  No
    OpenMP threads:             16
    Integrals threads:          16
    Memory (MB):             71525
    Algorithm:                Core
    Integral Cache:           NONE
    Schwarz Cutoff:          1E-12
    Fitting Condition:       1E-12

   => Auxiliary Basis Set <=

  Basis Set: (6-31G(D) AUX)
    Blend: CC-PVDZ-JKFIT
    Number of shells: 294
    Number of basis function: 917
    Number of Cartesian functions: 917
    Spherical Harmonics?: false
    Max angular momentum: 3

  Minimum eigenvalue in the overlap matrix is 3.5703575968E-03.
  Using Symmetric Orthogonalization.

  SCF Guess: Superposition of Atomic Densities via on-the-fly atomic UHF.

  ==> Iterations <==

                           Total Energy        Delta E     RMS |[F,P]|

   @DF-RHF iter   0:  -349.80679763499450   -3.49807e+02   1.53366e-01 
   @DF-RHF iter   1:  -346.99525770577742    2.81154e+00   1.52304e-02 
   @DF-RHF iter   2:  -347.16242992932445   -1.67172e-01   6.79255e-03 DIIS
   @DF-RHF iter   3:  -347.18539729984798   -2.29674e-02   2.18649e-03 DIIS
   @DF-RHF iter   4:  -347.18954935167130   -4.15205e-03   4.94578e-04 DIIS
   @DF-RHF iter   5:  -347.18977295231559   -2.23601e-04   1.36974e-04 DIIS
   @DF-RHF iter   6:  -347.18979626608495   -2.33138e-05   3.16723e-05 DIIS
   @DF-RHF iter   7:  -347.18979762828747   -1.36220e-06   8.78450e-06 DIIS
   @DF-RHF iter   8:  -347.18979773010892   -1.01821e-07   4.18152e-06 DIIS
   @DF-RHF iter   9:  -347.18979774562229   -1.55134e-08   9.96770e-07 DIIS
   @DF-RHF iter  10:  -347.18979774708470   -1.46241e-09   1.99640e-07 DIIS
   @DF-RHF iter  11:  -347.18979774715137   -6.66773e-11   6.26932e-08 DIIS
   @DF-RHF iter  12:  -347.18979774715672   -5.34328e-12   2.30531e-08 DIIS
   @DF-RHF iter  13:  -347.18979774715740   -6.82121e-13   5.36174e-09 DIIS

  ==> Post-Iterations <==

    Orbital Energies [Eh]
    ---------------------

    Doubly Occupied:                                                      

       1A    -20.576770     2A    -20.526228     3A    -11.279754  
       4A    -11.248408     5A    -11.222904     6A    -11.217595  
       7A    -11.212154     8A     -1.379656     9A     -1.334379  
      10A     -1.076682    11A     -0.982482    12A     -0.906180  
      13A     -0.863961    14A     -0.803098    15A     -0.710289  
      16A     -0.679272    17A     -0.664170    18A     -0.611036  
      19A     -0.602600    20A     -0.600098    21A     -0.574443  
      22A     -0.569510    23A     -0.530172    24A     -0.521636  
      25A     -0.480108    26A     -0.478269    27A     -0.474083  
      28A     -0.469752    29A     -0.450645    30A     -0.418211  

    Virtual:                                                              

      31A      0.211173    32A      0.229869    33A      0.261312  
      34A      0.270758    35A      0.277029    36A      0.298088  
      37A      0.323222    38A      0.334211    39A      0.337038  
      40A      0.340213    41A      0.340898    42A      0.346170  
      43A      0.351429    44A      0.363899    45A      0.388973  
      46A      0.422669    47A      0.435316    48A      0.453540  
      49A      0.480074    50A      0.698032    51A      0.738035  
      52A      0.747862    53A      0.749148    54A      0.770671  
      55A      0.789030    56A      0.798299    57A      0.817458  
      58A      0.845118    59A      0.896587    60A      0.916877  
      61A      0.964844    62A      0.987268    63A      1.017259  
      64A      1.067541    65A      1.084698    66A      1.111481  
      67A      1.143267    68A      1.146858    69A      1.157452  
      70A      1.160853    71A      1.166570    72A      1.182823  
      73A      1.192274    74A      1.199549    75A      1.213058  
      76A      1.227090    77A      1.231772    78A      1.238460  
      79A      1.259916    80A      1.267723    81A      1.294972  
      82A      1.316101    83A      1.369294    84A      1.426174  
      85A      1.497543    86A      1.580892    87A      1.631101  
      88A      1.669539    89A      1.717052    90A      1.746348  
      91A      1.765846    92A      1.791705    93A      1.802713  
      94A      1.848137    95A      1.915609    96A      2.008168  
      97A      2.060255    98A      2.063400    99A      2.104007  
     100A      2.130227   101A      2.225764   102A      2.234800  
     103A      2.270226   104A      2.324563   105A      2.348548  
     106A      2.364884   107A      2.417506   108A      2.424712  
     109A      2.481500   110A      2.500322   111A      2.535181  
     112A      2.609708   113A      2.630922   114A      2.669106  
     115A      2.735572   116A      2.749298   117A      2.783160  
     118A      2.790580   119A      2.794316   120A      2.835691  
     121A      2.892094   122A      2.921986   123A      2.995592  
     124A      3.141540   125A      3.213311   126A      3.254504  
     127A      4.225128   128A      4.366642   129A      4.577824  
     130A      4.661993   131A      4.694897   132A      4.802279  
     133A      4.959739  

    Final Occupation by Irrep:
              A 
    DOCC [    30 ]

  Energy converged.

  @DF-RHF Final Energy:  -347.18979774715740

   => Energetics <=

    Nuclear Repulsion Energy =            318.7807343807885445
    One-Electron Energy =               -1105.0119759565923232
    Two-Electron Energy =                 439.0414438286463792
    Total Energy =                       -347.1897977471573995



Properties will be evaluated at   0.000000,   0.000000,   0.000000 [a0]

Properties computed using the SCF density matrix

  Nuclear Dipole Moment: [e a0]
     X:     3.7175      Y:    -3.8507      Z:     2.0550

  Electronic Dipole Moment: [e a0]
     X:    -3.0192      Y:     4.5241      Z:    -1.5543

  Dipole Moment: [e a0]
     X:     0.6983      Y:     0.6734      Z:     0.5007     Total:     1.0917

  Dipole Moment: [D]
     X:     1.7749      Y:     1.7115      Z:     1.2726     Total:     2.7748


*** tstop() called on wr86 at Fri Oct  5 14:49:27 2018
Module time:
	user time   =      27.10 seconds =       0.45 minutes
	system time =       1.05 seconds =       0.02 minutes
	total time  =          2 seconds =       0.03 minutes
Total time:
	user time   =      27.10 seconds =       0.45 minutes
	system time =       1.05 seconds =       0.02 minutes
	total time  =          2 seconds =       0.03 minutes

*** tstart() called on wr86
*** at Fri Oct  5 14:49:27 2018


         ------------------------------------------------------------
                                   SCF GRAD                          
                          Rob Parrish, Justin Turney,                
                       Andy Simmonett, and Alex Sokolov              
         ------------------------------------------------------------

  ==> Geometry <==

    Molecular point group: c1
    Full point group: C1

    Geometry (in Angstrom), charge = 0, multiplicity = 1:

       Center              X                  Y                   Z               Mass       
    ------------   -----------------  -----------------  -----------------  -----------------
         C            0.862615379959     1.372565634748     0.026916574468    12.000000000000
         H            1.129250004159     1.523176598948    -1.016431274632     1.007825032070
         H            1.534868361759     1.975076113048     0.633136704868     1.007825032070
         C            0.989081823259    -0.094569299852     0.396581613668    12.000000000000
         H            0.694411430659    -0.213526913952     1.436019968168     1.007825032070
         H            0.281643458659    -0.662753307352    -0.199835914832     1.007825032070
         C            2.404894685359    -0.634445420552     0.188293519568    12.000000000000
         H            2.694967708959    -0.501562926052    -0.851757904032     1.007825032070
         H            3.108547580959    -0.052249096752     0.779945169668     1.007825032070
         C            2.531253520459    -2.110832039752     0.561897585968    12.000000000000
         H            3.543085846759    -2.470002165252     0.402988634268     1.007825032070
         H            2.281983651059    -2.272850586652     1.606551821768     1.007825032070
         H            1.863349572059    -2.723365536352    -0.036261139532     1.007825032070
         O           -0.473485715741     1.774206119848     0.249689892768    15.994914619560
         H           -0.573406329141     2.691490414248     0.035411345768     1.007825032070
         C           -3.320886628241    -0.522148610452    -0.211158817432    12.000000000000
         H           -3.976213582941     0.257783711448     0.172376871968     1.007825032070
         H           -2.855878098241    -1.023476250152     0.635385833768     1.007825032070
         H           -3.929361303541    -1.244361219552    -0.740002309732     1.007825032070
         O           -2.378340138941    -0.022282225952    -1.110217442932    15.994914619560
         H           -1.817186724741     0.600116671548    -0.661016600332     1.007825032070

  Nuclear repulsion =  318.780734380788545

  ==> Basis Set <==

  Basis Set: 6-31G(D)
    Blend: 6-31G(D)
    Number of shells: 70
    Number of basis function: 133
    Number of Cartesian functions: 133
    Spherical Harmonics?: false
    Max angular momentum: 2

  ==> DFJKGrad: Density-Fitted SCF Gradients <==

    Gradient:                    1
    J tasked:                  Yes
    K tasked:                  Yes
    wK tasked:                  No
    OpenMP threads:             16
    Integrals threads:          16
    Memory (MB):             71525
    Schwarz Cutoff:          0E+00
    Fitting Condition:       1E-12

   => Auxiliary Basis Set <=

  Basis Set: (6-31G(D) AUX)
    Blend: CC-PVDZ-JKFIT
    Number of shells: 294
    Number of basis function: 917
    Number of Cartesian functions: 917
    Spherical Harmonics?: false
    Max angular momentum: 3


  -Total Gradient:
     Atom            X                  Y                   Z
    ------   -----------------  -----------------  -----------------
       1       -0.000077697349     0.000012943915     0.000015362289
       2        0.000005465812     0.000007342161    -0.000014557325
       3        0.000010466797     0.000011314758     0.000004577817
       4        0.000021449166     0.000018508494    -0.000006495404
       5       -0.000009631266    -0.000004898732     0.000007375040
       6       -0.000014207175    -0.000009140757    -0.000001368953
       7       -0.000006240581    -0.000023602187     0.000007646791
       8        0.000004937326     0.000007903960    -0.000005707294
       9        0.000005809471     0.000009008879    -0.000001394438
      10        0.000006886010     0.000005799378    -0.000003473495
      11        0.000003747292    -0.000005018503     0.000000502728
      12       -0.000002692591    -0.000004268022     0.000004769305
      13       -0.000004090402    -0.000005496100    -0.000000338507
      14        0.000047693182    -0.000028420517    -0.000000972321
      15        0.000008745207     0.000010716704    -0.000004348908
      16        0.000047507205     0.000024639189    -0.000039368920
      17       -0.000006662505     0.000011260350     0.000003201294
      18        0.000008335006    -0.000005342290     0.000009462791
      19       -0.000003241316    -0.000003927803    -0.000004804628
      20       -0.000041419346    -0.000032277221     0.000013416860
      21       -0.000005159942     0.000002954340     0.000016515279


*** tstop() called on wr86 at Fri Oct  5 14:49:29 2018
Module time:
	user time   =      26.92 seconds =       0.45 minutes
	system time =       0.72 seconds =       0.01 minutes
	total time  =          2 seconds =       0.03 minutes
Total time:
	user time   =      54.06 seconds =       0.90 minutes
	system time =       1.77 seconds =       0.03 minutes
	total time  =          4 seconds =       0.07 minutes

			-----------------------------------------
			 OPTKING 2.0: for geometry optimizations 
			  - R.A. King,  Bethel University        
			-----------------------------------------

	Internal coordinates to be generated automatically.
	Detected frag 1 with atoms:  1 2 3 4 5 6 7 8 9 10 11 12 13 14 15
	Detected frag 2 with atoms:  16 17 18 19 20 21
	Unifying fragments since fragment_mode == SINGLE
	Increasing scaling to  2.200 to connect fragments.
	Connecting fragments 1 and 2
	---Fragment 1 Bond Connectivity---
	 1 : 2 3 4 14
	 2 : 1
	 3 : 1
	 4 : 1 5 6 7
	 5 : 4
	 6 : 4
	 7 : 4 8 9 10
	 8 : 7
	 9 : 7
	 10 : 7 11 12 13
	 11 : 10
	 12 : 10
	 13 : 10
	 14 : 1 15 21
	 15 : 14
	 16 : 17 18 19 20
	 17 : 16
	 18 : 16
	 19 : 16
	 20 : 16 21
	 21 : 14 20

	---Fragment 1 Geometry and Gradient---
	 C           1.6301068261        2.5937731491        0.0508649542
	 H           2.1339732434        2.8783866240       -1.9207767420
	 H           2.9004808538        3.7323529453        1.1964549769
	 C           1.8690937690       -0.1787100773        0.7494306392
	 H           1.3122474275       -0.4035073894        2.7136844612
	 H           0.5322290040       -1.2524222446       -0.3776351505
	 C           4.5445923338       -1.1989280911        0.3558231846
	 H           5.0927509069       -0.9478165686       -1.6095891701
	 H           5.8743035991       -0.0987364836        1.4738827693
	 C           4.7833759266       -3.9888944677        1.0618325522
	 H           6.6954619157       -4.6676276400        0.7615381534
	 H           4.3123241402       -4.2950651497        3.0359429614
	 H           3.5212203810       -5.1464150234       -0.0685236230
	 O          -0.8947583306        3.3527636698        0.4718455155
	 H          -1.0835809249        5.0861797722        0.0669177455
	 C          -6.2755662457       -0.9867178744       -0.3990323355
	 H          -7.5139547176        0.4871406162        0.3257450797
	 H          -5.3968274746       -1.9340898163        1.2007052145
	 H          -7.4254167409       -2.3515019153       -1.3984017031
	 O          -4.4944115134       -0.0421073047       -2.0980069151
	 H          -3.4339852421        1.1340561570       -1.2491403439
	            -0.0000776973        0.0000129439        0.0000153623
	             0.0000054658        0.0000073422       -0.0000145573
	             0.0000104668        0.0000113148        0.0000045778
	             0.0000214492        0.0000185085       -0.0000064954
	            -0.0000096313       -0.0000048987        0.0000073750
	            -0.0000142072       -0.0000091408       -0.0000013690
	            -0.0000062406       -0.0000236022        0.0000076468
	             0.0000049373        0.0000079040       -0.0000057073
	             0.0000058095        0.0000090089       -0.0000013944
	             0.0000068860        0.0000057994       -0.0000034735
	             0.0000037473       -0.0000050185        0.0000005027
	            -0.0000026926       -0.0000042680        0.0000047693
	            -0.0000040904       -0.0000054961       -0.0000003385
	             0.0000476932       -0.0000284205       -0.0000009723
	             0.0000087452        0.0000107167       -0.0000043489
	             0.0000475072        0.0000246392       -0.0000393689
	            -0.0000066625        0.0000112604        0.0000032013
	             0.0000083350       -0.0000053423        0.0000094628
	            -0.0000032413       -0.0000039278       -0.0000048046
	            -0.0000414193       -0.0000322772        0.0000134169
	            -0.0000051599        0.0000029543        0.0000165153

	Previous optimization step data not found.  Starting new optimization.

	---Fragment 1 Intrafragment Coordinates---
	 - Coordinate -           - BOHR/RAD -       - ANG/DEG -
	 H(14,21)         =         3.785780	       2.003348
	 R(1,2)           =         2.054813	       1.087360
	 R(1,3)           =         2.054894	       1.087403
	 R(1,4)           =         2.869106	       1.518266
	 R(1,14)          =         2.669876	       1.412837
	 R(4,5)           =         2.053997	       1.086929
	 R(4,6)           =         2.051912	       1.085825
	 R(4,7)           =         2.890340	       1.529502
	 R(7,8)           =         2.055816	       1.087891
	 R(7,9)           =         2.056359	       1.088178
	 R(7,10)          =         2.887798	       1.528157
	 R(10,11)         =         2.051080	       1.085385
	 R(10,12)         =         2.052497	       1.086134
	 R(10,13)         =         2.051974	       1.085858
	 R(14,15)         =         1.790070	       0.947264
	 R(16,17)         =         2.056980	       1.088507
	 R(16,18)         =         2.056418	       1.088210
	 R(16,19)         =         2.045368	       1.082362
	 R(16,20)         =         2.636535	       1.395194
	 R(20,21)         =         1.796786	       0.950818
	 B(1,4,5)         =         1.892324	     108.422186
	 B(1,4,6)         =         1.894041	     108.520577
	 B(1,4,7)         =         1.966043	     112.645980
	 B(1,14,15)       =         1.917042	     109.838395
	 B(1,14,21)       =         1.977967	     113.329170
	 B(2,1,3)         =         1.882401	     107.853650
	 B(2,1,4)         =         1.925214	     110.306615
	 B(2,1,14)        =         1.921772	     110.109440
	 B(3,1,4)         =         1.926435	     110.376577
	 B(3,1,14)        =         1.916887	     109.829514
	 B(4,1,14)        =         1.891345	     108.366064
	 B(4,7,8)         =         1.911230	     109.505391
	 B(4,7,9)         =         1.913121	     109.613785
	 B(4,7,10)        =         1.965207	     112.598094
	 B(5,4,6)         =         1.866463	     106.940465
	 B(5,4,7)         =         1.920428	     110.032418
	 B(6,4,7)         =         1.921533	     110.095756
	 B(7,10,11)       =         1.940130	     111.161270
	 B(7,10,12)       =         1.939367	     111.117566
	 B(7,10,13)       =         1.938480	     111.066750
	 B(8,7,9)         =         1.856707	     106.381457
	 B(8,7,10)        =         1.906772	     109.249992
	 B(9,7,10)        =         1.907630	     109.299121
	 B(11,10,12)      =         1.881158	     107.782434
	 B(11,10,13)      =         1.881880	     107.823794
	 B(12,10,13)      =         1.880224	     107.728875
	 B(14,21,20)      =         3.034291	     173.852047
	 B(15,14,21)      =         1.975702	     113.199399
	 B(16,20,21)      =         1.905824	     109.195658
	 B(17,16,18)      =         1.889412	     108.255307
	 B(17,16,19)      =         1.887890	     108.168126
	 B(17,16,20)      =         1.957418	     112.151784
	 B(18,16,19)      =         1.889064	     108.235377
	 B(18,16,20)      =         1.958072	     112.189240
	 B(19,16,20)      =         1.879679	     107.697698
	 D(1,4,7,8)       =        -1.017487	     -58.297690
	 D(1,4,7,9)       =         1.013214	      58.052858
	 D(1,4,7,10)      =         3.140676	     179.947454
	 D(1,14,21,20)    =         0.209485	      12.002606
	 D(2,1,4,5)       =        -3.119255	    -178.720173
	 D(2,1,4,6)       =        -1.097896	     -62.904786
	 D(2,1,4,7)       =         1.034320	      59.262164
	 D(2,1,14,15)     =        -1.046756	     -59.974690
	 D(2,1,14,21)     =         1.182205	      67.735361
	 D(3,1,4,5)       =         1.085430	      62.190585
	 D(3,1,4,6)       =         3.106790	     178.005972
	 D(3,1,4,7)       =        -1.044179	     -59.827078
	 D(3,1,14,15)     =         1.023669	      58.651895
	 D(3,1,14,21)     =        -3.030556	    -173.638054
	 D(4,1,14,15)     =         3.129326	     179.297145
	 D(4,1,14,21)     =        -0.924899	     -52.992804
	 D(4,7,10,11)     =         3.139064	     179.855112
	 D(4,7,10,12)     =        -1.049071	     -60.107345
	 D(4,7,10,13)     =         1.043695	      59.799345
	 D(5,4,1,14)      =        -1.014288	     -58.114404
	 D(5,4,7,8)       =        -3.131139	    -179.401028
	 D(5,4,7,9)       =        -1.100438	     -63.050479
	 D(5,4,7,10)      =         1.027024	      58.844116
	 D(6,4,1,14)      =         1.007072	      57.700983
	 D(6,4,7,8)       =         1.099145	      62.976381
	 D(6,4,7,9)       =         3.129845	     179.326929
	 D(6,4,7,10)      =        -1.025878	     -58.778476
	 D(7,4,1,14)      =         3.139288	     179.867933
	 D(8,7,10,11)     =         1.011515	      57.955530
	 D(8,7,10,12)     =         3.106565	     177.993074
	 D(8,7,10,13)     =        -1.083854	     -62.100237
	 D(9,7,10,11)     =        -1.013553	     -58.072287
	 D(9,7,10,12)     =         1.081498	      61.965256
	 D(9,7,10,13)     =        -3.108921	    -178.128054
	 D(14,21,20,16)   =         2.012680	     115.318062
	 D(15,14,21,20)   =         2.407550	     137.942445
	 D(17,16,20,21)   =         1.090491	      62.480518
	 D(18,16,20,21)   =        -1.040460	     -59.613966
	 D(19,16,20,21)   =        -3.117492	    -178.619154

	Current energy   :      -347.1897977472

	Generating empirical Hessian (Schlegel '84) for each fragment.
	Taking RFO optimization step.
	Going to follow RFO solution 1.
	Using RFO vector 1.
	Norm of target step-size    0.00135
	Projected energy change by RFO approximation:        -0.0000000790

	Back-transformation to cartesian coordinates...
	Could not converge backtransformation.
	Using first guess instead.

	--- Internal Coordinate Step in ANG or DEG, aJ/ANG or AJ/DEG ---
	 ---------------------------------------------------------------------------
	   Coordinate                Previous        Force       Change         New 
	   ----------                --------       ------       ------       ------
	    1 H(14,21)        =      2.003348    -0.000022    -0.000048     2.003300
	    2 R(1,2)          =      1.087360    -0.000134    -0.000025     1.087336
	    3 R(1,3)          =      1.087403    -0.000126    -0.000023     1.087380
	    4 R(1,4)          =      1.518266    -0.000096    -0.000020     1.518246
	    5 R(1,14)         =      1.412837     0.000491     0.000072     1.412910
	    6 R(4,5)          =      1.086929    -0.000084    -0.000015     1.086913
	    7 R(4,6)          =      1.085825    -0.000122    -0.000022     1.085803
	    8 R(4,7)          =      1.529502    -0.000107    -0.000023     1.529479
	    9 R(7,8)          =      1.087891    -0.000064    -0.000012     1.087879
	   10 R(7,9)          =      1.088178    -0.000064    -0.000012     1.088166
	   11 R(7,10)         =      1.528157    -0.000077    -0.000017     1.528140
	   12 R(10,11)        =      1.085385    -0.000042    -0.000008     1.085377
	   13 R(10,12)        =      1.086134    -0.000048    -0.000009     1.086126
	   14 R(10,13)        =      1.085858    -0.000048    -0.000009     1.085849
	   15 R(14,15)        =      0.947264    -0.000086    -0.000009     0.947255
	   16 R(16,17)        =      1.088507    -0.000109    -0.000019     1.088488
	   17 R(16,18)        =      1.088210    -0.000110    -0.000019     1.088190
	   18 R(16,19)        =      1.082362    -0.000056    -0.000010     1.082352
	   19 R(16,20)        =      1.395194     0.000502     0.000070     1.395264
	   20 R(20,21)        =      0.950818    -0.000079    -0.000009     0.950809
	   21 B(1,4,5)        =    108.422186     0.000000     0.000353   108.422539
	   22 B(1,4,6)        =    108.520577     0.000000     0.000470   108.521047
	   23 B(1,4,7)        =    112.645980    -0.000001    -0.005073   112.640907
	   24 B(1,14,15)      =    109.838395     0.000001     0.004953   109.843348
	   25 B(1,14,21)      =    113.329170     0.000000     0.002785   113.331955
	   26 B(2,1,3)        =    107.853650     0.000000     0.002461   107.856112
	   27 B(2,1,4)        =    110.306615    -0.000000    -0.001797   110.304818
	   28 B(2,1,14)       =    110.109440    -0.000000     0.000526   110.109966
	   29 B(3,1,4)        =    110.376577    -0.000000    -0.001823   110.374754
	   30 B(3,1,14)       =    109.829514    -0.000000    -0.000239   109.829275
	   31 B(4,1,14)       =    108.366064     0.000000     0.000850   108.366915
	   32 B(4,7,8)        =    109.505391     0.000000     0.001094   109.506485
	   33 B(4,7,9)        =    109.613785     0.000000     0.001236   109.615021
	   34 B(4,7,10)       =    112.598094    -0.000000    -0.002519   112.595575
	   35 B(5,4,6)        =    106.940465     0.000000     0.005741   106.946206
	   36 B(5,4,7)        =    110.032418     0.000000    -0.000493   110.031926
	   37 B(6,4,7)        =    110.095756     0.000000    -0.000410   110.095346
	   38 B(7,10,11)      =    111.161270    -0.000000    -0.002049   111.159221
	   39 B(7,10,12)      =    111.117566    -0.000000    -0.000732   111.116834
	   40 B(7,10,13)      =    111.066750    -0.000000    -0.000640   111.066109
	   41 B(8,7,9)        =    106.381457     0.000000     0.004426   106.385884
	   42 B(8,7,10)       =    109.249992    -0.000000    -0.001915   109.248077
	   43 B(9,7,10)       =    109.299121    -0.000000    -0.001936   109.297185
	   44 B(11,10,12)     =    107.782434     0.000000     0.000661   107.783095
	   45 B(11,10,13)     =    107.823794     0.000000     0.000597   107.824391
	   46 B(12,10,13)     =    107.728875     0.000000     0.002366   107.731241
	   47 B(14,21,20)     =    173.852047     0.000000     0.001212   173.853259
	   48 B(15,14,21)     =    113.199399    -0.000001    -0.001540   113.197859
	   49 B(16,20,21)     =    109.195658     0.000002     0.010464   109.206122
	   50 B(17,16,18)     =    108.255307    -0.000000    -0.000833   108.254474
	   51 B(17,16,19)     =    108.168126    -0.000000    -0.000751   108.167376
	   52 B(17,16,20)     =    112.151784     0.000000     0.001134   112.152919
	   53 B(18,16,19)     =    108.235377    -0.000000    -0.001078   108.234298
	   54 B(18,16,20)     =    112.189240     0.000000     0.001152   112.190392
	   55 B(19,16,20)     =    107.697698     0.000000     0.000238   107.697937
	   56 D(1,4,7,8)      =    -58.297690    -0.000000    -0.008208   -58.305897
	   57 D(1,4,7,9)      =     58.052858     0.000000    -0.001537    58.051322
	   58 D(1,4,7,10)     =    179.947454    -0.000000    -0.004841   179.942613
	   59 D(1,14,21,20)   =     12.002606    -0.000000     0.036260    12.038865
	   60 D(2,1,4,5)      =   -178.720173    -0.000000    -0.003546  -178.723720
	   61 D(2,1,4,6)      =    -62.904786     0.000000     0.003673   -62.901113
	   62 D(2,1,4,7)      =     59.262164    -0.000000     0.000146    59.262310
	   63 D(2,1,14,15)    =    -59.974690    -0.000000    -0.008340   -59.983030
	   64 D(2,1,14,21)    =     67.735361    -0.000000    -0.004130    67.731231
	   65 D(3,1,4,5)      =     62.190585    -0.000000    -0.004314    62.186271
	   66 D(3,1,4,6)      =    178.005972     0.000000     0.002906   178.008878
	   67 D(3,1,4,7)      =    -59.827078    -0.000000    -0.000621   -59.827699
	   68 D(3,1,14,15)    =     58.651895     0.000000    -0.005144    58.646751
	   69 D(3,1,14,21)    =   -173.638054     0.000000    -0.000934  -173.638989
	   70 D(4,1,14,15)    =    179.297145    -0.000000    -0.006988   179.290158
	   71 D(4,1,14,21)    =    -52.992804    -0.000000    -0.002778   -52.995582
	   72 D(4,7,10,11)    =    179.855112    -0.000000     0.000082   179.855194
	   73 D(4,7,10,12)    =    -60.107345    -0.000000    -0.000945   -60.108290
	   74 D(4,7,10,13)    =     59.799345     0.000000     0.001128    59.800472
	   75 D(5,4,1,14)     =    -58.114404    -0.000000    -0.003455   -58.117860
	   76 D(5,4,7,8)      =   -179.401028    -0.000000    -0.004873  -179.405901
	   77 D(5,4,7,9)      =    -63.050479     0.000000     0.001797   -63.048682
	   78 D(5,4,7,10)     =     58.844116     0.000000    -0.001507    58.842609
	   79 D(6,4,1,14)     =     57.700983     0.000000     0.003764    57.704747
	   80 D(6,4,7,8)      =     62.976381    -0.000000    -0.011354    62.965027
	   81 D(6,4,7,9)      =    179.326929     0.000000    -0.004683   179.322246
	   82 D(6,4,7,10)     =    -58.778476    -0.000000    -0.007988   -58.786463
	   83 D(7,4,1,14)     =    179.867933     0.000000     0.000237   179.868170
	   84 D(8,7,10,11)    =     57.955530     0.000000     0.001733    57.957263
	   85 D(8,7,10,12)    =    177.993074    -0.000000     0.000706   177.993779
	   86 D(8,7,10,13)    =    -62.100237     0.000000     0.002778   -62.097459
	   87 D(9,7,10,11)    =    -58.072287    -0.000000    -0.001415   -58.073702
	   88 D(9,7,10,12)    =     61.965256    -0.000000    -0.002442    61.962814
	   89 D(9,7,10,13)    =   -178.128054     0.000000    -0.000370  -178.128424
	   90 D(14,21,20,16)  =    115.318062     0.000000     0.040398   115.358460
	   91 D(15,14,21,20)  =    137.942445     0.000000     0.044125   137.986570
	   92 D(17,16,20,21)  =     62.480518     0.000000     0.001508    62.482025
	   93 D(18,16,20,21)  =    -59.613966    -0.000000     0.000912   -59.613054
	   94 D(19,16,20,21)  =   -178.619154     0.000000     0.001406  -178.617748
	 ---------------------------------------------------------------------------
	Successfully symmetrized geometry.

  ==> Convergence Check <==

  Measures of convergence in internal coordinates in au.
  Criteria marked as inactive (o), active & met (*), and active & unmet ( ).
  --------------------------------------------------------------------------------------------- ~
   Step     Total Energy     Delta E     MAX Force     RMS Force      MAX Disp      RMS Disp    ~
  --------------------------------------------------------------------------------------------- ~
    Convergence Criteria             o    1.50e-05 *    1.00e-05 *    6.00e-05 *    4.00e-05 *  ~
  --------------------------------------------------------------------------------------------- ~
      1    -347.18979775   -3.47e+02 o    6.09e-05      1.08e-05      7.70e-04      1.39e-04    ~
  ---------------------------------------------------------------------------------------------

	Writing optimization data to binary file.
	Structure for next step:
	Cartesian Geometry (in Angstrom)
	    C     0.8626746677   1.3722604625   0.0270037896
	    H     1.1292217857   1.5228924650  -1.0163377494
	    H     1.5348595360   1.9748245720   0.6332048114
	    C     0.9893875834  -0.0948414516   0.3966323233
	    H     0.6948654206  -0.2138562319   1.4360901085
	    H     0.2820626164  -0.6631282075  -0.1997814578
	    C     2.4052898099  -0.6343657578   0.1882111229
	    H     2.6952061430  -0.5015180680  -0.8518762313
	    H     3.1088666325  -0.0520269140   0.7797912784
	    C     2.5319911750  -2.1106908260   0.5618741528
	    H     3.5438858703  -2.4696210262   0.4028719853
	    H     2.2828754972  -2.2726901685   1.6065590451
	    H     1.8641699176  -2.7233810162  -0.0362006521
	    O    -0.4735376438   1.7737326548   0.2498731220
	    H    -0.5736519061   2.6910193317   0.0357369571
	    C    -3.3219573656  -0.5216552868  -0.2113160248
	    H    -3.9772467156   0.2588269110   0.1711090317
	    H    -2.8579770165  -1.0226372051   0.6359721491
	    H    -3.9303079153  -1.2439247652  -0.7402040748
	    O    -2.3783179601  -0.0228323016  -1.1099166756
	    H    -1.8171656296   0.5996024946  -0.6607828780
			--------------------------
			 OPTKING Finished Execution 
			--------------------------

    Structure for next step:
    Molecular point group: c1
    Full point group: C1

    Geometry (in Angstrom), charge = 0, multiplicity = 1:

    C            0.862634622325     1.372390862228     0.026948384498
    H            1.129181740389     1.523022864734    -1.016393154478
    H            1.534819490638     1.974954971761     0.633149406315
    C            0.989347538028    -0.094711051866     0.396576918257
    H            0.694825375203    -0.213725832224     1.436034703478
    H            0.282022571034    -0.662997807799    -0.199836862866
    C            2.405249764561    -0.634235358087     0.188155717884
    H            2.695166097619    -0.501387668236    -0.851931636404
    H            3.108826587132    -0.051896514308     0.779735873327
    C            2.531951129603    -2.110560426273     0.561818747771
    H            3.543845824903    -2.469490626476     0.402816580234
    H            2.282835451802    -2.272559768782     1.606503640011
    H            1.864129872264    -2.723250616508    -0.036256057116
    O           -0.473577689177     1.773863054512     0.249817716924
    H           -0.573691951439     2.691149731374     0.035681552012
    C           -3.321997411008    -0.521524887032    -0.211371429842
    H           -3.977286760956     0.258957310719     0.171053626608
    H           -2.858017061822    -1.022506805374     0.635916744045
    H           -3.930347960648    -1.243794365470    -0.740259479881
    O           -2.378358005483    -0.022701901925    -1.109972080667
    H           -1.817205674961     0.599732894359    -0.660838283099

gradient() will perform analytic gradient computation.

*** tstart() called on wr86
*** at Fri Oct  5 14:49:29 2018

   => Loading Basis Set <=

    Name: 6-31G(D)
    Role: ORBITAL
    Keyword: BASIS
    atoms 1, 4, 7, 10, 16                     entry C          line   111 file /usr/local/hpc1/software_molmod/psi4/psi4conda/share/psi4/basis/6-31g_d_.gbs 
    atoms 2-3, 5-6, 8-9, 11-13, 15, 17-19, 21 entry H          line    44 file /usr/local/hpc1/software_molmod/psi4/psi4conda/share/psi4/basis/6-31g_d_.gbs 
    atoms 14, 20                              entry O          line   145 file /usr/local/hpc1/software_molmod/psi4/psi4conda/share/psi4/basis/6-31g_d_.gbs 


         ---------------------------------------------------------
                                   SCF
            by Justin Turney, Rob Parrish, Andy Simmonett
                             and Daniel Smith
                              RHF Reference
                       16 Threads,  95367 MiB Core
         ---------------------------------------------------------

  ==> Geometry <==

    Molecular point group: c1
    Full point group: C1

    Geometry (in Angstrom), charge = 0, multiplicity = 1:

       Center              X                  Y                   Z               Mass       
    ------------   -----------------  -----------------  -----------------  -----------------
         C            0.862634622325     1.372390862228     0.026948384498    12.000000000000
         H            1.129181740389     1.523022864734    -1.016393154478     1.007825032070
         H            1.534819490638     1.974954971761     0.633149406315     1.007825032070
         C            0.989347538028    -0.094711051866     0.396576918257    12.000000000000
         H            0.694825375203    -0.213725832224     1.436034703478     1.007825032070
         H            0.282022571034    -0.662997807799    -0.199836862866     1.007825032070
         C            2.405249764561    -0.634235358087     0.188155717884    12.000000000000
         H            2.695166097619    -0.501387668236    -0.851931636404     1.007825032070
         H            3.108826587132    -0.051896514308     0.779735873327     1.007825032070
         C            2.531951129603    -2.110560426273     0.561818747771    12.000000000000
         H            3.543845824903    -2.469490626476     0.402816580234     1.007825032070
         H            2.282835451802    -2.272559768782     1.606503640011     1.007825032070
         H            1.864129872264    -2.723250616508    -0.036256057116     1.007825032070
         O           -0.473577689177     1.773863054512     0.249817716924    15.994914619560
         H           -0.573691951439     2.691149731374     0.035681552012     1.007825032070
         C           -3.321997411008    -0.521524887032    -0.211371429842    12.000000000000
         H           -3.977286760956     0.258957310719     0.171053626608     1.007825032070
         H           -2.858017061822    -1.022506805374     0.635916744045     1.007825032070
         H           -3.930347960648    -1.243794365470    -0.740259479881     1.007825032070
         O           -2.378358005483    -0.022701901925    -1.109972080667    15.994914619560
         H           -1.817205674961     0.599732894359    -0.660838283099     1.007825032070

  Running in c1 symmetry.

  Rotational constants: A =      0.09590  B =      0.03168  C =      0.02532 [cm^-1]
  Rotational constants: A =   2875.05629  B =    949.65316  C =    759.12282 [MHz]
  Nuclear repulsion =  318.770962247210036

  Charge       = 0
  Multiplicity = 1
  Electrons    = 60
  Nalpha       = 30
  Nbeta        = 30

  ==> Algorithm <==

  SCF Algorithm Type is DF.
  DIIS enabled.
  MOM disabled.
  Fractional occupation disabled.
  Guess Type is READ.
  Energy threshold   = 1.00e-08
  Density threshold  = 1.00e-08
  Integral threshold = 0.00e+00

  ==> Primary Basis <==

  Basis Set: 6-31G(D)
    Blend: 6-31G(D)
    Number of shells: 70
    Number of basis function: 133
    Number of Cartesian functions: 133
    Spherical Harmonics?: false
    Max angular momentum: 2

   => Loading Basis Set <=

    Name: (6-31G(D) AUX)
    Role: JKFIT
    Keyword: DF_BASIS_SCF
    atoms 1, 4, 7, 10, 16                     entry C          line   121 file /usr/local/hpc1/software_molmod/psi4/psi4conda/share/psi4/basis/cc-pvdz-jkfit.gbs 
    atoms 2-3, 5-6, 8-9, 11-13, 15, 17-19, 21 entry H          line    51 file /usr/local/hpc1/software_molmod/psi4/psi4conda/share/psi4/basis/cc-pvdz-jkfit.gbs 
    atoms 14, 20                              entry O          line   221 file /usr/local/hpc1/software_molmod/psi4/psi4conda/share/psi4/basis/cc-pvdz-jkfit.gbs 

  Reading orbitals from file 180, no projection.

  ==> Pre-Iterations <==

   -------------------------------------------------------
    Irrep   Nso     Nmo     Nalpha   Nbeta   Ndocc  Nsocc
   -------------------------------------------------------
     A        133     133       0       0       0       0
   -------------------------------------------------------
    Total     133     133      30      30      30       0
   -------------------------------------------------------

  ==> Integral Setup <==

  ==> DiskDFJK: Density-Fitted J/K Matrices <==

    J tasked:                  Yes
    K tasked:                  Yes
    wK tasked:                  No
    OpenMP threads:             16
    Integrals threads:          16
    Memory (MB):             71525
    Algorithm:                Core
    Integral Cache:           NONE
    Schwarz Cutoff:          1E-12
    Fitting Condition:       1E-12

   => Auxiliary Basis Set <=

  Basis Set: (6-31G(D) AUX)
    Blend: CC-PVDZ-JKFIT
    Number of shells: 294
    Number of basis function: 917
    Number of Cartesian functions: 917
    Spherical Harmonics?: false
    Max angular momentum: 3

  Minimum eigenvalue in the overlap matrix is 3.5700998710E-03.
  Using Symmetric Orthogonalization.

  SCF Guess: Orbitals guess was supplied from a previous computation.

  ==> Iterations <==

                           Total Energy        Delta E     RMS |[F,P]|

   @DF-RHF iter   0:  -347.18980899042231   -3.47190e+02   5.60497e-05 
   @DF-RHF iter   1:  -347.18979767144492    1.13190e-05   8.86257e-06 
   @DF-RHF iter   2:  -347.18979775196374   -8.05188e-08   2.90739e-06 DIIS
   @DF-RHF iter   3:  -347.18979776406974   -1.21060e-08   7.06890e-07 DIIS
   @DF-RHF iter   4:  -347.18979776436407   -2.94335e-10   2.07958e-07 DIIS
   @DF-RHF iter   5:  -347.18979776441392   -4.98517e-11   5.10578e-08 DIIS
   @DF-RHF iter   6:  -347.18979776441802   -4.09273e-12   1.57183e-08 DIIS
   @DF-RHF iter   7:  -347.18979776441836   -3.41061e-13   4.23844e-09 DIIS

  ==> Post-Iterations <==

    Orbital Energies [Eh]
    ---------------------

    Doubly Occupied:                                                      

       1A    -20.576760     2A    -20.526218     3A    -11.279747  
       4A    -11.248408     5A    -11.222893     6A    -11.217582  
       7A    -11.212144     8A     -1.379622     9A     -1.334341  
      10A     -1.076694    11A     -0.982487    12A     -0.906193  
      13A     -0.863956    14A     -0.803095    15A     -0.710272  
      16A     -0.679262    17A     -0.664169    18A     -0.611037  
      19A     -0.602587    20A     -0.600084    21A     -0.574430  
      22A     -0.569506    23A     -0.530174    24A     -0.521624  
      25A     -0.480107    26A     -0.478268    27A     -0.474083  
      28A     -0.469745    29A     -0.450652    30A     -0.418214  

    Virtual:                                                              

      31A      0.211179    32A      0.229871    33A      0.261348  
      34A      0.270763    35A      0.277032    36A      0.298072  
      37A      0.323232    38A      0.334221    39A      0.337048  
      40A      0.340211    41A      0.340905    42A      0.346180  
      43A      0.351411    44A      0.363898    45A      0.388948  
      46A      0.422667    47A      0.435328    48A      0.453550  
      49A      0.480075    50A      0.698027    51A      0.738034  
      52A      0.747879    53A      0.749169    54A      0.770663  
      55A      0.789006    56A      0.798257    57A      0.817427  
      58A      0.845112    59A      0.896577    60A      0.916897  
      61A      0.964840    62A      0.987278    63A      1.017260  
      64A      1.067547    65A      1.084713    66A      1.111489  
      67A      1.143293    68A      1.146869    69A      1.157445  
      70A      1.160866    71A      1.166579    72A      1.182830  
      73A      1.192301    74A      1.199567    75A      1.213081  
      76A      1.227105    77A      1.231795    78A      1.238459  
      79A      1.259930    80A      1.267742    81A      1.294992  
      82A      1.316109    83A      1.369289    84A      1.426174  
      85A      1.497559    86A      1.580919    87A      1.631109  
      88A      1.669537    89A      1.717028    90A      1.746325  
      91A      1.765850    92A      1.791717    93A      1.802738  
      94A      1.848170    95A      1.915653    96A      2.008163  
      97A      2.060267    98A      2.063433    99A      2.104044  
     100A      2.130244   101A      2.225777   102A      2.234832  
     103A      2.270245   104A      2.324609   105A      2.348566  
     106A      2.364897   107A      2.417439   108A      2.424639  
     109A      2.481408   110A      2.500297   111A      2.535161  
     112A      2.609712   113A      2.630929   114A      2.669100  
     115A      2.735527   116A      2.749306   117A      2.783123  
     118A      2.790580   119A      2.794307   120A      2.835730  
     121A      2.892160   122A      2.921981   123A      2.995585  
     124A      3.141564   125A      3.213274   126A      3.254496  
     127A      4.225121   128A      4.366631   129A      4.577864  
     130A      4.662010   131A      4.694923   132A      4.802283  
     133A      4.959751  

    Final Occupation by Irrep:
              A 
    DOCC [    30 ]

  Energy converged.

  @DF-RHF Final Energy:  -347.18979776441836

   => Energetics <=

    Nuclear Repulsion Energy =            318.7709622472100364
    One-Electron Energy =               -1104.9928059373301039
    Two-Electron Energy =                 439.0320459257017092
    Total Energy =                       -347.1897977644183584



Properties will be evaluated at   0.000000,   0.000000,   0.000000 [a0]

Properties computed using the SCF density matrix

  Nuclear Dipole Moment: [e a0]
     X:     3.7166      Y:    -3.8481      Z:     2.0540

  Electronic Dipole Moment: [e a0]
     X:    -3.0187      Y:     4.5220      Z:    -1.5534

  Dipole Moment: [e a0]
     X:     0.6978      Y:     0.6738      Z:     0.5006     Total:     1.0916

  Dipole Moment: [D]
     X:     1.7737      Y:     1.7127      Z:     1.2723     Total:     2.7746


*** tstop() called on wr86 at Fri Oct  5 14:49:31 2018
Module time:
	user time   =      24.48 seconds =       0.41 minutes
	system time =       0.39 seconds =       0.01 minutes
	total time  =          2 seconds =       0.03 minutes
Total time:
	user time   =      82.30 seconds =       1.37 minutes
	system time =       2.29 seconds =       0.04 minutes
	total time  =          6 seconds =       0.10 minutes

*** tstart() called on wr86
*** at Fri Oct  5 14:49:31 2018


         ------------------------------------------------------------
                                   SCF GRAD                          
                          Rob Parrish, Justin Turney,                
                       Andy Simmonett, and Alex Sokolov              
         ------------------------------------------------------------

  ==> Geometry <==

    Molecular point group: c1
    Full point group: C1

    Geometry (in Angstrom), charge = 0, multiplicity = 1:

       Center              X                  Y                   Z               Mass       
    ------------   -----------------  -----------------  -----------------  -----------------
         C            0.862634622325     1.372390862228     0.026948384498    12.000000000000
         H            1.129181740389     1.523022864734    -1.016393154478     1.007825032070
         H            1.534819490638     1.974954971761     0.633149406315     1.007825032070
         C            0.989347538028    -0.094711051866     0.396576918257    12.000000000000
         H            0.694825375203    -0.213725832224     1.436034703478     1.007825032070
         H            0.282022571034    -0.662997807799    -0.199836862866     1.007825032070
         C            2.405249764561    -0.634235358087     0.188155717884    12.000000000000
         H            2.695166097619    -0.501387668236    -0.851931636404     1.007825032070
         H            3.108826587132    -0.051896514308     0.779735873327     1.007825032070
         C            2.531951129603    -2.110560426273     0.561818747771    12.000000000000
         H            3.543845824903    -2.469490626476     0.402816580234     1.007825032070
         H            2.282835451802    -2.272559768782     1.606503640011     1.007825032070
         H            1.864129872264    -2.723250616508    -0.036256057116     1.007825032070
         O           -0.473577689177     1.773863054512     0.249817716924    15.994914619560
         H           -0.573691951439     2.691149731374     0.035681552012     1.007825032070
         C           -3.321997411008    -0.521524887032    -0.211371429842    12.000000000000
         H           -3.977286760956     0.258957310719     0.171053626608     1.007825032070
         H           -2.858017061822    -1.022506805374     0.635916744045     1.007825032070
         H           -3.930347960648    -1.243794365470    -0.740259479881     1.007825032070
         O           -2.378358005483    -0.022701901925    -1.109972080667    15.994914619560
         H           -1.817205674961     0.599732894359    -0.660838283099     1.007825032070

  Nuclear repulsion =  318.770962247210036

  ==> Basis Set <==

  Basis Set: 6-31G(D)
    Blend: 6-31G(D)
    Number of shells: 70
    Number of basis function: 133
    Number of Cartesian functions: 133
    Spherical Harmonics?: false
    Max angular momentum: 2

  ==> DFJKGrad: Density-Fitted SCF Gradients <==

    Gradient:                    1
    J tasked:                  Yes
    K tasked:                  Yes
    wK tasked:                  No
    OpenMP threads:             16
    Integrals threads:          16
    Memory (MB):             71525
    Schwarz Cutoff:          0E+00
    Fitting Condition:       1E-12

   => Auxiliary Basis Set <=

  Basis Set: (6-31G(D) AUX)
    Blend: CC-PVDZ-JKFIT
    Number of shells: 294
    Number of basis function: 917
    Number of Cartesian functions: 917
    Spherical Harmonics?: false
    Max angular momentum: 3


  -Total Gradient:
     Atom            X                  Y                   Z
    ------   -----------------  -----------------  -----------------
       1       -0.000020075910    -0.000002555596     0.000002839079
       2        0.000005583608    -0.000001946656    -0.000000835074
       3        0.000005217233    -0.000001714712    -0.000000494155
       4        0.000011325625    -0.000000796791    -0.000002013239
       5       -0.000000578583     0.000001014990     0.000001286225
       6        0.000000340954     0.000001029204    -0.000002136272
       7       -0.000002897071    -0.000004768258     0.000001883425
       8       -0.000000247650    -0.000000446469    -0.000000517694
       9       -0.000000125827     0.000000154528     0.000000436471
      10       -0.000001417658     0.000005682191    -0.000000968701
      11       -0.000000786160     0.000001554112    -0.000000151955
      12       -0.000000117016     0.000000316782     0.000000255295
      13       -0.000000180565     0.000000249186    -0.000000360399
      14        0.000008508438     0.000002897601     0.000000897619
      15       -0.000002631785     0.000000558251     0.000001379159
      16        0.000002107493    -0.000000443262    -0.000010324275
      17       -0.000002768611    -0.000001992577     0.000002863229
      18       -0.000003448475    -0.000001995349     0.000002906575
      19       -0.000004075551    -0.000002068575     0.000004926340
      20        0.000005736790     0.000002306058     0.000006624600
      21        0.000000530724     0.000002965340    -0.000008496252


*** tstop() called on wr86 at Fri Oct  5 14:49:33 2018
Module time:
	user time   =      26.86 seconds =       0.45 minutes
	system time =       0.72 seconds =       0.01 minutes
	total time  =          2 seconds =       0.03 minutes
Total time:
	user time   =     109.19 seconds =       1.82 minutes
	system time =       3.01 seconds =       0.05 minutes
	total time  =          8 seconds =       0.13 minutes

			-----------------------------------------
			 OPTKING 2.0: for geometry optimizations 
			  - R.A. King,  Bethel University        
			-----------------------------------------

	Previous internal coordinate definitions found.
	---Fragment 1 Geometry and Gradient---
	 C           1.6301431889        2.5934428769        0.0509250664
	 H           2.1338442436        2.8780961085       -1.9207047053
	 H           2.9003885007        3.7321240214        1.1964789791
	 C           1.8695958971       -0.1789779498        0.7494217661
	 H           1.3130296693       -0.4038832904        2.7137123069
	 H           0.5329454225       -1.2528842834       -0.3776369421
	 C           4.5452633362       -1.1985311306        0.3555627771
	 H           5.0931258071       -0.9474853794       -1.6099174767
	 H           5.8748308443       -0.0980701993        1.4734872566
	 C           4.7846942168       -3.9883811926        1.0616835696
	 H           6.6968980662       -4.6666609718        0.7612130184
	 H           4.3139338103       -4.2945155836        3.0358519111
	 H           3.5226949347       -5.1461978564       -0.0685140186
	 O          -0.8949321352        3.3521153703        0.4720870681
	 H          -1.0841206729        5.0855359749        0.0674283613
	 C          -6.2776653210       -0.9855392080       -0.3994341147
	 H          -7.5159827302        0.4893583974        0.3232445083
	 H          -5.4008695300       -1.9322578312        1.2017084896
	 H          -7.4272812526       -2.3504307164       -1.3988876842
	 O          -4.4944452763       -0.0429003773       -2.0975432476
	 H          -3.4340210528        1.1333309232       -1.2488033732
	            -0.0000200759       -0.0000025556        0.0000028391
	             0.0000055836       -0.0000019467       -0.0000008351
	             0.0000052172       -0.0000017147       -0.0000004942
	             0.0000113256       -0.0000007968       -0.0000020132
	            -0.0000005786        0.0000010150        0.0000012862
	             0.0000003410        0.0000010292       -0.0000021363
	            -0.0000028971       -0.0000047683        0.0000018834
	            -0.0000002476       -0.0000004465       -0.0000005177
	            -0.0000001258        0.0000001545        0.0000004365
	            -0.0000014177        0.0000056822       -0.0000009687
	            -0.0000007862        0.0000015541       -0.0000001520
	            -0.0000001170        0.0000003168        0.0000002553
	            -0.0000001806        0.0000002492       -0.0000003604
	             0.0000085084        0.0000028976        0.0000008976
	            -0.0000026318        0.0000005583        0.0000013792
	             0.0000021075       -0.0000004433       -0.0000103243
	            -0.0000027686       -0.0000019926        0.0000028632
	            -0.0000034485       -0.0000019953        0.0000029066
	            -0.0000040756       -0.0000020686        0.0000049263
	             0.0000057368        0.0000023061        0.0000066246
	             0.0000005307        0.0000029653       -0.0000084963

	---Fragment 1 Intrafragment Coordinates---
	 - Coordinate -           - BOHR/RAD -       - ANG/DEG -
	 H(14,21)         =         3.785689	       2.003300
	 R(1,2)           =         2.054767	       1.087336
	 R(1,3)           =         2.054851	       1.087380
	 R(1,4)           =         2.869068	       1.518246
	 R(1,14)          =         2.670013	       1.412910
	 R(4,5)           =         2.053968	       1.086913
	 R(4,6)           =         2.051870	       1.085803
	 R(4,7)           =         2.890296	       1.529479
	 R(7,8)           =         2.055794	       1.087879
	 R(7,9)           =         2.056336	       1.088166
	 R(7,10)          =         2.887767	       1.528140
	 R(10,11)         =         2.051065	       1.085377
	 R(10,12)         =         2.052480	       1.086126
	 R(10,13)         =         2.051957	       1.085849
	 R(14,15)         =         1.790053	       0.947255
	 R(16,17)         =         2.056944	       1.088488
	 R(16,18)         =         2.056381	       1.088190
	 R(16,19)         =         2.045349	       1.082352
	 R(16,20)         =         2.636668	       1.395264
	 R(20,21)         =         1.796769	       0.950809
	 B(1,4,5)         =         1.892330	     108.422539
	 B(1,4,6)         =         1.894050	     108.521047
	 B(1,4,7)         =         1.965955	     112.640907
	 B(1,14,15)       =         1.917128	     109.843348
	 B(1,14,21)       =         1.978016	     113.331955
	 B(2,1,3)         =         1.882444	     107.856112
	 B(2,1,4)         =         1.925182	     110.304818
	 B(2,1,14)        =         1.921781	     110.109966
	 B(3,1,4)         =         1.926403	     110.374754
	 B(3,1,14)        =         1.916882	     109.829275
	 B(4,1,14)        =         1.891359	     108.366915
	 B(4,7,8)         =         1.911249	     109.506485
	 B(4,7,9)         =         1.913143	     109.615021
	 B(4,7,10)        =         1.965164	     112.595575
	 B(5,4,6)         =         1.866563	     106.946206
	 B(5,4,7)         =         1.920419	     110.031926
	 B(6,4,7)         =         1.921526	     110.095346
	 B(7,10,11)       =         1.940094	     111.159221
	 B(7,10,12)       =         1.939355	     111.116834
	 B(7,10,13)       =         1.938469	     111.066109
	 B(8,7,9)         =         1.856784	     106.385884
	 B(8,7,10)        =         1.906739	     109.248077
	 B(9,7,10)        =         1.907596	     109.297185
	 B(11,10,12)      =         1.881170	     107.783095
	 B(11,10,13)      =         1.881891	     107.824391
	 B(12,10,13)      =         1.880265	     107.731241
	 B(14,21,20)      =         3.034312	     173.853259
	 B(15,14,21)      =         1.975675	     113.197859
	 B(16,20,21)      =         1.906006	     109.206122
	 B(17,16,18)      =         1.889397	     108.254474
	 B(17,16,19)      =         1.887877	     108.167376
	 B(17,16,20)      =         1.957438	     112.152919
	 B(18,16,19)      =         1.889045	     108.234298
	 B(18,16,20)      =         1.958092	     112.190392
	 B(19,16,20)      =         1.879684	     107.697937
	 D(1,4,7,8)       =        -1.017630	     -58.305897
	 D(1,4,7,9)       =         1.013187	      58.051322
	 D(1,4,7,10)      =         3.140591	     179.942613
	 D(1,14,21,20)    =         0.210118	      12.038865
	 D(2,1,4,5)       =        -3.119317	    -178.723720
	 D(2,1,4,6)       =        -1.097832	     -62.901113
	 D(2,1,4,7)       =         1.034322	      59.262310
	 D(2,1,14,15)     =        -1.046901	     -59.983030
	 D(2,1,14,21)     =         1.182133	      67.731231
	 D(3,1,4,5)       =         1.085355	      62.186271
	 D(3,1,4,6)       =         3.106841	     178.008878
	 D(3,1,4,7)       =        -1.044190	     -59.827699
	 D(3,1,14,15)     =         1.023579	      58.646751
	 D(3,1,14,21)     =        -3.030572	    -173.638989
	 D(4,1,14,15)     =         3.129204	     179.290158
	 D(4,1,14,21)     =        -0.924947	     -52.995582
	 D(4,7,10,11)     =         3.139065	     179.855194
	 D(4,7,10,12)     =        -1.049088	     -60.108290
	 D(4,7,10,13)     =         1.043715	      59.800472
	 D(5,4,1,14)      =        -1.014348	     -58.117860
	 D(5,4,7,8)       =        -3.131224	    -179.405901
	 D(5,4,7,9)       =        -1.100407	     -63.048682
	 D(5,4,7,10)      =         1.026997	      58.842609
	 D(6,4,1,14)      =         1.007138	      57.704747
	 D(6,4,7,8)       =         1.098947	      62.965027
	 D(6,4,7,9)       =         3.129764	     179.322246
	 D(6,4,7,10)      =        -1.026017	     -58.786463
	 D(7,4,1,14)      =         3.139292	     179.868170
	 D(8,7,10,11)     =         1.011545	      57.957263
	 D(8,7,10,12)     =         3.106577	     177.993779
	 D(8,7,10,13)     =        -1.083805	     -62.097459
	 D(9,7,10,11)     =        -1.013577	     -58.073702
	 D(9,7,10,12)     =         1.081455	      61.962814
	 D(9,7,10,13)     =        -3.108927	    -178.128424
	 D(14,21,20,16)   =         2.013385	     115.358460
	 D(15,14,21,20)   =         2.408320	     137.986570
	 D(17,16,20,21)   =         1.090517	      62.482025
	 D(18,16,20,21)   =        -1.040444	     -59.613054
	 D(19,16,20,21)   =        -3.117468	    -178.617748

	Current energy   :      -347.1897977644

	Energy change for the previous step:
		Projected    :        -0.0000000790
		Actual       :        -0.0000000173
	Energy ratio indicates iffy step: Trust radius decreased to 1.250e-01.


	Performing BFGS update.
	Previous computed or guess Hessian on step 1.
	Steps to be used in Hessian update: 1
	Taking RFO optimization step.
	Going to follow RFO solution 1.
	Using RFO vector 1.
	Norm of target step-size    0.00059
	Projected energy change by RFO approximation:         0.0000000012

	Back-transformation to cartesian coordinates...
	Successfully converged to displaced geometry.

	--- Internal Coordinate Step in ANG or DEG, aJ/ANG or AJ/DEG ---
	 ---------------------------------------------------------------------------
	   Coordinate                Previous        Force       Change         New 
	   ----------                --------       ------       ------       ------
	    1 H(14,21)        =      2.003300    -0.000022    -0.000046     2.003254
	    2 R(1,2)          =      1.087336    -0.000016    -0.000005     1.087331
	    3 R(1,3)          =      1.087380    -0.000016    -0.000005     1.087375
	    4 R(1,4)          =      1.518246     0.000033     0.000004     1.518250
	    5 R(1,14)         =      1.412910     0.000025     0.000010     1.412920
	    6 R(4,5)          =      1.086913    -0.000011    -0.000003     1.086910
	    7 R(4,6)          =      1.085803    -0.000003    -0.000003     1.085800
	    8 R(4,7)          =      1.529479     0.000053     0.000008     1.529487
	    9 R(7,8)          =      1.087879    -0.000003    -0.000002     1.087878
	   10 R(7,9)          =      1.088166    -0.000002    -0.000001     1.088165
	   11 R(7,10)         =      1.528140     0.000066     0.000011     1.528151
	   12 R(10,11)        =      1.085377     0.000010     0.000001     1.085378
	   13 R(10,12)        =      1.086126    -0.000002    -0.000001     1.086125
	   14 R(10,13)        =      1.085849    -0.000001    -0.000001     1.085848
	   15 R(14,15)        =      0.947255    -0.000004    -0.000001     0.947254
	   16 R(16,17)        =      1.088488    -0.000010    -0.000004     1.088484
	   17 R(16,18)        =      1.088190    -0.000014    -0.000004     1.088186
	   18 R(16,19)        =      1.082352    -0.000010    -0.000003     1.082350
	   19 R(16,20)        =      1.395264    -0.000067    -0.000002     1.395263
	   20 R(20,21)        =      0.950809    -0.000007    -0.000002     0.950808
	   21 B(1,4,5)        =    108.422539     0.000000     0.000515   108.423054
	   22 B(1,4,6)        =    108.521047     0.000000     0.000785   108.521832
	   23 B(1,4,7)        =    112.640907    -0.000000    -0.000953   112.639954
	   24 B(1,14,15)      =    109.843348    -0.000000    -0.001352   109.841996
	   25 B(1,14,21)      =    113.331955     0.000000     0.000874   113.332829
	   26 B(2,1,3)        =    107.856112     0.000000     0.001689   107.857801
	   27 B(2,1,4)        =    110.304818     0.000000     0.001470   110.306288
	   28 B(2,1,14)       =    110.109966    -0.000000    -0.002282   110.107683
	   29 B(3,1,4)        =    110.374754     0.000000     0.001647   110.376402
	   30 B(3,1,14)       =    109.829275    -0.000000    -0.001326   109.827949
	   31 B(4,1,14)       =    108.366915    -0.000000    -0.001212   108.365702
	   32 B(4,7,8)        =    109.506485    -0.000000    -0.000108   109.506376
	   33 B(4,7,9)        =    109.615021    -0.000000     0.000132   109.615152
	   34 B(4,7,10)       =    112.595575     0.000000     0.000479   112.596054
	   35 B(5,4,6)        =    106.946206    -0.000000    -0.000094   106.946112
	   36 B(5,4,7)        =    110.031926     0.000000    -0.000228   110.031697
	   37 B(6,4,7)        =    110.095346     0.000000     0.000035   110.095381
	   38 B(7,10,11)      =    111.159221     0.000000     0.000392   111.159613
	   39 B(7,10,12)      =    111.116834     0.000000    -0.000070   111.116764
	   40 B(7,10,13)      =    111.066109     0.000000    -0.000020   111.066090
	   41 B(8,7,9)        =    106.385884     0.000000     0.000014   106.385898
	   42 B(8,7,10)       =    109.248077    -0.000000    -0.000312   109.247765
	   43 B(9,7,10)       =    109.297185    -0.000000    -0.000233   109.296952
	   44 B(11,10,12)     =    107.783095    -0.000000    -0.000141   107.782954
	   45 B(11,10,13)     =    107.824391    -0.000000    -0.000160   107.824231
	   46 B(12,10,13)     =    107.731241    -0.000000    -0.000019   107.731222
	   47 B(14,21,20)     =    173.853259     0.000000     0.000972   173.854231
	   48 B(15,14,21)     =    113.197859    -0.000000    -0.000739   113.197119
	   49 B(16,20,21)     =    109.206122    -0.000001    -0.003112   109.203009
	   50 B(17,16,18)     =    108.254474     0.000000     0.001578   108.256052
	   51 B(17,16,19)     =    108.167376     0.000000     0.001490   108.168866
	   52 B(17,16,20)     =    112.152919    -0.000000    -0.000982   112.151936
	   53 B(18,16,19)     =    108.234298     0.000000     0.001668   108.235966
	   54 B(18,16,20)     =    112.190392    -0.000000    -0.001097   112.189295
	   55 B(19,16,20)     =    107.697937    -0.000001    -0.002484   107.695453
	   56 D(1,4,7,8)      =    -58.305897     0.000000     0.005646   -58.300251
	   57 D(1,4,7,9)      =     58.051322    -0.000000     0.005677    58.056998
	   58 D(1,4,7,10)     =    179.942613     0.000000     0.005798   179.948411
	   59 D(1,14,21,20)   =     12.038865     0.000000    -0.007747    12.031119
	   60 D(2,1,4,5)      =   -178.723720     0.000000    -0.005127  -178.728847
	   61 D(2,1,4,6)      =    -62.901113     0.000000    -0.004545   -62.905658
	   62 D(2,1,4,7)      =     59.262310     0.000000    -0.004576    59.257734
	   63 D(2,1,14,15)    =    -59.983030     0.000000    -0.002795   -59.985825
	   64 D(2,1,14,21)    =     67.731231     0.000000    -0.004214    67.727017
	   65 D(3,1,4,5)      =     62.186271    -0.000000    -0.009185    62.177086
	   66 D(3,1,4,6)      =    178.008878    -0.000000    -0.008603   178.000275
	   67 D(3,1,4,7)      =    -59.827699    -0.000000    -0.008633   -59.836333
	   68 D(3,1,14,15)    =     58.646751    -0.000000    -0.002929    58.643821
	   69 D(3,1,14,21)    =   -173.638989    -0.000000    -0.004348  -173.643337
	   70 D(4,1,14,15)    =    179.290158     0.000000    -0.002461   179.287697
	   71 D(4,1,14,21)    =    -52.995582    -0.000000    -0.003879   -52.999461
	   72 D(4,7,10,11)    =    179.855194    -0.000000    -0.001526   179.853668
	   73 D(4,7,10,12)    =    -60.108290     0.000000    -0.001489   -60.109779
	   74 D(4,7,10,13)    =     59.800472    -0.000000    -0.001573    59.798899
	   75 D(5,4,1,14)     =    -58.117860    -0.000000    -0.007795   -58.125655
	   76 D(5,4,7,8)      =   -179.405901     0.000000     0.005795  -179.400106
	   77 D(5,4,7,9)      =    -63.048682    -0.000000     0.005825   -63.042856
	   78 D(5,4,7,10)     =     58.842609    -0.000000     0.005947    58.848556
	   79 D(6,4,1,14)     =     57.704747    -0.000000    -0.007213    57.697534
	   80 D(6,4,7,8)      =     62.965027     0.000000     0.006026    62.971053
	   81 D(6,4,7,9)      =    179.322246     0.000000     0.006057   179.328303
	   82 D(6,4,7,10)     =    -58.786463     0.000000     0.006179   -58.780285
	   83 D(7,4,1,14)     =    179.868170    -0.000000    -0.007244   179.860926
	   84 D(8,7,10,11)    =     57.957263    -0.000000    -0.001488    57.955775
	   85 D(8,7,10,12)    =    177.993779    -0.000000    -0.001451   177.992328
	   86 D(8,7,10,13)    =    -62.097459    -0.000000    -0.001535   -62.098994
	   87 D(9,7,10,11)    =    -58.073702     0.000000    -0.001200   -58.074902
	   88 D(9,7,10,12)    =     61.962814     0.000000    -0.001163    61.961652
	   89 D(9,7,10,13)    =   -178.128424     0.000000    -0.001247  -178.129670
	   90 D(14,21,20,16)  =    115.358460    -0.000000    -0.004497   115.353963
	   91 D(15,14,21,20)  =    137.986570    -0.000000    -0.009495   137.977074
	   92 D(17,16,20,21)  =     62.482025     0.000000     0.001591    62.483616
	   93 D(18,16,20,21)  =    -59.613054    -0.000000     0.001059   -59.611995
	   94 D(19,16,20,21)  =   -178.617748     0.000000     0.001252  -178.616496
	 ---------------------------------------------------------------------------
	Successfully symmetrized geometry.

  ==> Convergence Check <==

  Measures of convergence in internal coordinates in au.
  Criteria marked as inactive (o), active & met (*), and active & unmet ( ).
  ---------------------------------------------------------------------------------------------
   Step     Total Energy     Delta E     MAX Force     RMS Force      MAX Disp      RMS Disp   
  ---------------------------------------------------------------------------------------------
    Convergence Criteria             o    1.50e-05 *    1.00e-05 *    6.00e-05 *    4.00e-05 *
  ---------------------------------------------------------------------------------------------
      2    -347.18979776   -1.73e-08 o    1.30e-05 *    2.79e-06 *    1.66e-04      6.03e-05    ~
  ---------------------------------------------------------------------------------------------

	Writing optimization data to binary file.
	Structure for next step:
	Cartesian Geometry (in Angstrom)
	    C     0.8626168126   1.3724155123   0.0269542665
	    H     1.1291420584   1.5229920304  -1.0163958782
	    H     1.5347611565   1.9750403359   0.6331313011
	    C     0.9893045933  -0.0946661789   0.3966887716
	    H     0.6948886134  -0.2135935745   1.4361833919
	    H     0.2819058491  -0.6629824848  -0.1996046176
	    C     2.4051794550  -0.6342456297   0.1881663395
	    H     2.6950312751  -0.5013926619  -0.8519366723
	    H     3.1088184086  -0.0519459959   0.7797086015
	    C     2.5318595446  -2.1105928314   0.5617944678
	    H     3.5437247208  -2.4695660092   0.4026953085
	    H     2.2828329819  -2.2725996619   1.6064982935
	    H     1.8639598420  -2.7232459583  -0.0362288392
	    O    -0.4736133153   1.7738925127   0.2497707952
	    H    -0.5737008841   2.6911736926   0.0356042729
	    C    -3.3218315526  -0.5215732866  -0.2113832035
	    H    -3.9771155153   0.2588365936   0.1711886217
	    H    -2.8576810035  -1.0225971378   0.6357815994
	    H    -3.9301782255  -1.2438278351  -0.7402908312
	    O    -2.3783535138  -0.0226016276  -1.1100680785
	    H    -1.8171977512   0.5998082555  -0.6609072837
			--------------------------
			 OPTKING Finished Execution 
			--------------------------

    Structure for next step:
    Molecular point group: c1
    Full point group: C1

    Geometry (in Angstrom), charge = 0, multiplicity = 1:

    C            0.862627094138     1.372399419888     0.026964891772
    H            1.129152339915     1.522975937960    -1.016385252942
    H            1.534771438044     1.975024243450     0.633141926323
    C            0.989314874868    -0.094682271282     0.396699396811
    H            0.694898894959    -0.213609666907     1.436194017174
    H            0.281916130678    -0.662998577233    -0.199593992311
    C            2.405189736551    -0.634261722162     0.188176964792
    H            2.695041556701    -0.501408754327    -0.851926047039
    H            3.108828690188    -0.051962088328     0.779719226767
    C            2.531869826198    -2.110608923782     0.561805093044
    H            3.543735002352    -2.469582101589     0.402705933752
    H            2.282843263415    -2.272615754366     1.606508918725
    H            1.863970123530    -2.723262050694    -0.036218213967
    O           -0.473603033755     1.773876420271     0.249781420472
    H           -0.573690602490     2.691157600149     0.035614898151
    C           -3.321821271025    -0.521589378969    -0.211372578215
    H           -3.977105233698     0.258820501173     0.171199246966
    H           -2.857670721950    -1.022613230229     0.635792224642
    H           -3.930167943897    -1.243843927468    -0.740280205899
    O           -2.378343232265    -0.022617720062    -1.110057453223
    H           -1.817187469605     0.599792163071    -0.660896658474

gradient() will perform analytic gradient computation.

*** tstart() called on wr86
*** at Fri Oct  5 14:49:33 2018

   => Loading Basis Set <=

    Name: 6-31G(D)
    Role: ORBITAL
    Keyword: BASIS
    atoms 1, 4, 7, 10, 16                     entry C          line   111 file /usr/local/hpc1/software_molmod/psi4/psi4conda/share/psi4/basis/6-31g_d_.gbs 
    atoms 2-3, 5-6, 8-9, 11-13, 15, 17-19, 21 entry H          line    44 file /usr/local/hpc1/software_molmod/psi4/psi4conda/share/psi4/basis/6-31g_d_.gbs 
    atoms 14, 20                              entry O          line   145 file /usr/local/hpc1/software_molmod/psi4/psi4conda/share/psi4/basis/6-31g_d_.gbs 


         ---------------------------------------------------------
                                   SCF
            by Justin Turney, Rob Parrish, Andy Simmonett
                             and Daniel Smith
                              RHF Reference
                       16 Threads,  95367 MiB Core
         ---------------------------------------------------------

  ==> Geometry <==

    Molecular point group: c1
    Full point group: C1

    Geometry (in Angstrom), charge = 0, multiplicity = 1:

       Center              X                  Y                   Z               Mass       
    ------------   -----------------  -----------------  -----------------  -----------------
         C            0.862627094138     1.372399419888     0.026964891772    12.000000000000
         H            1.129152339915     1.522975937960    -1.016385252942     1.007825032070
         H            1.534771438044     1.975024243450     0.633141926323     1.007825032070
         C            0.989314874868    -0.094682271282     0.396699396811    12.000000000000
[...]
	Denominators (dg)(dq) or (dq)(dq) are very small.
	 Skipping Hessian update for step 34.
	Denominators (dg)(dq) or (dq)(dq) are very small.
	 Skipping Hessian update for step 33.
	Denominators (dg)(dq) or (dq)(dq) are very small.
	 Skipping Hessian update for step 32.
	Denominators (dg)(dq) or (dq)(dq) are very small.
	 Skipping Hessian update for step 31.
	Denominators (dg)(dq) or (dq)(dq) are very small.
	 Skipping Hessian update for step 30.
	Denominators (dg)(dq) or (dq)(dq) are very small.
	 Skipping Hessian update for step 29.
	Denominators (dg)(dq) or (dq)(dq) are very small.
	 Skipping Hessian update for step 28.
	Denominators (dg)(dq) or (dq)(dq) are very small.
	 Skipping Hessian update for step 27.
	Denominators (dg)(dq) or (dq)(dq) are very small.
	 Skipping Hessian update for step 26.
	Denominators (dg)(dq) or (dq)(dq) are very small.
	 Skipping Hessian update for step 25.
	Denominators (dg)(dq) or (dq)(dq) are very small.
	 Skipping Hessian update for step 24.
	Denominators (dg)(dq) or (dq)(dq) are very small.
	 Skipping Hessian update for step 23.
	Denominators (dg)(dq) or (dq)(dq) are very small.
	 Skipping Hessian update for step 22.
	Denominators (dg)(dq) or (dq)(dq) are very small.
	 Skipping Hessian update for step 21.
	Denominators (dg)(dq) or (dq)(dq) are very small.
	 Skipping Hessian update for step 20.
	Denominators (dg)(dq) or (dq)(dq) are very small.
	 Skipping Hessian update for step 19.
	Denominators (dg)(dq) or (dq)(dq) are very small.
	 Skipping Hessian update for step 18.
	Denominators (dg)(dq) or (dq)(dq) are very small.
	 Skipping Hessian update for step 17.
	Denominators (dg)(dq) or (dq)(dq) are very small.
	 Skipping Hessian update for step 16.
	Denominators (dg)(dq) or (dq)(dq) are very small.
	 Skipping Hessian update for step 15.
	Denominators (dg)(dq) or (dq)(dq) are very small.
	 Skipping Hessian update for step 14.
	Denominators (dg)(dq) or (dq)(dq) are very small.
	 Skipping Hessian update for step 13.
	Denominators (dg)(dq) or (dq)(dq) are very small.
	 Skipping Hessian update for step 12.
	Denominators (dg)(dq) or (dq)(dq) are very small.
	 Skipping Hessian update for step 11.
	Denominators (dg)(dq) or (dq)(dq) are very small.
	 Skipping Hessian update for step 10.
	Denominators (dg)(dq) or (dq)(dq) are very small.
	 Skipping Hessian update for step 9.
	Denominators (dg)(dq) or (dq)(dq) are very small.
	 Skipping Hessian update for step 8.
	Denominators (dg)(dq) or (dq)(dq) are very small.
	 Skipping Hessian update for step 7.
	Denominators (dg)(dq) or (dq)(dq) are very small.
	 Skipping Hessian update for step 6.
	Denominators (dg)(dq) or (dq)(dq) are very small.
	 Skipping Hessian update for step 5.
	Denominators (dg)(dq) or (dq)(dq) are very small.
	 Skipping Hessian update for step 4.
	Denominators (dg)(dq) or (dq)(dq) are very small.
	 Skipping Hessian update for step 3.
	Denominators (dg)(dq) or (dq)(dq) are very small.
	 Skipping Hessian update for step 2.
	Steps to be used in Hessian update: 1
	Taking RFO optimization step.
	Going to follow RFO solution 1.
	Using RFO vector 1.
	Norm of target step-size    0.00021
	Projected energy change by RFO approximation:        -0.0000000000

	Back-transformation to cartesian coordinates...
	Successfully converged to displaced geometry.

	--- Internal Coordinate Step in ANG or DEG, aJ/ANG or AJ/DEG ---
	 ---------------------------------------------------------------------------
	   Coordinate                Previous        Force       Change         New 
	   ----------                --------       ------       ------       ------
	    1 H(14,21)        =      2.003122     0.000000    -0.000000     2.003122
	    2 R(1,2)          =      1.087331     0.000002     0.000000     1.087331
	    3 R(1,3)          =      1.087375     0.000002     0.000000     1.087375
	    4 R(1,4)          =      1.518249     0.000002     0.000000     1.518249
	    5 R(1,14)         =      1.412924    -0.000007    -0.000000     1.412924
	    6 R(4,5)          =      1.086911     0.000001    -0.000000     1.086910
	    7 R(4,6)          =      1.085803     0.000002     0.000000     1.085803
	    8 R(4,7)          =      1.529489     0.000002     0.000000     1.529489
	    9 R(7,8)          =      1.087878     0.000001    -0.000000     1.087878
	   10 R(7,9)          =      1.088165     0.000001     0.000000     1.088165
	   11 R(7,10)         =      1.528153     0.000001     0.000000     1.528153
	   12 R(10,11)        =      1.085378     0.000001     0.000000     1.085378
	   13 R(10,12)        =      1.086125     0.000001     0.000000     1.086125
	   14 R(10,13)        =      1.085849     0.000001    -0.000000     1.085849
	   15 R(14,15)        =      0.947255     0.000001     0.000000     0.947255
	   16 R(16,17)        =      1.088485     0.000002     0.000000     1.088485
	   17 R(16,18)        =      1.088187     0.000002     0.000000     1.088187
	   18 R(16,19)        =      1.082350     0.000001    -0.000000     1.082350
	   19 R(16,20)        =      1.395264    -0.000008    -0.000000     1.395264
	   20 R(20,21)        =      0.950811     0.000001     0.000000     0.950811
	   21 B(1,4,5)        =    108.423186     0.000000     0.000003   108.423189
	   22 B(1,4,6)        =    108.521249    -0.000000     0.000011   108.521260
	   23 B(1,4,7)        =    112.640461     0.000000     0.000011   112.640472
	   24 B(1,14,15)      =    109.841956    -0.000000     0.000014   109.841969
	   25 B(1,14,21)      =    113.338676     0.000000     0.000049   113.338724
	   26 B(2,1,3)        =    107.858123    -0.000000    -0.000007   107.858116
	   27 B(2,1,4)        =    110.306296     0.000000     0.000031   110.306327
	   28 B(2,1,14)       =    110.107788     0.000000     0.000046   110.107834
	   29 B(3,1,4)        =    110.376754     0.000000    -0.000019   110.376734
	   30 B(3,1,14)       =    109.827783    -0.000000    -0.000073   109.827710
	   31 B(4,1,14)       =    108.365089     0.000000     0.000022   108.365111
	   32 B(4,7,8)        =    109.506309    -0.000000    -0.000049   109.506260
	   33 B(4,7,9)        =    109.614847    -0.000000     0.000042   109.614889
	   34 B(4,7,10)       =    112.596229     0.000000     0.000006   112.596235
	   35 B(5,4,6)        =    106.945874    -0.000000    -0.000005   106.945869
	   36 B(5,4,7)        =    110.031860    -0.000000    -0.000090   110.031769
	   37 B(6,4,7)        =    110.095357     0.000000     0.000071   110.095428
	   38 B(7,10,11)      =    111.159534     0.000000     0.000006   111.159539
	   39 B(7,10,12)      =    111.116820     0.000000    -0.000007   111.116813
	   40 B(7,10,13)      =    111.066100     0.000000     0.000005   111.066105
	   41 B(8,7,9)        =    106.385768    -0.000000    -0.000004   106.385763
	   42 B(8,7,10)       =    109.248021    -0.000000    -0.000051   109.247969
	   43 B(9,7,10)       =    109.297009     0.000000     0.000055   109.297065
	   44 B(11,10,12)     =    107.782997    -0.000000    -0.000008   107.782989
	   45 B(11,10,13)     =    107.824251    -0.000000     0.000012   107.824263
	   46 B(12,10,13)     =    107.731173    -0.000000    -0.000007   107.731165
	   47 B(14,21,20)     =    173.872198     0.000000     0.000226   173.872423
	   48 B(15,14,21)     =    113.187397    -0.000000    -0.000078   113.187318
	   49 B(16,20,21)     =    109.202605    -0.000000    -0.000031   109.202574
	   50 B(17,16,18)     =    108.255907     0.000000     0.000009   108.255915
	   51 B(17,16,19)     =    108.168838     0.000000     0.000006   108.168844
	   52 B(17,16,20)     =    112.151702    -0.000000    -0.000003   112.151698
	   53 B(18,16,19)     =    108.235884     0.000000     0.000005   108.235889
	   54 B(18,16,20)     =    112.189116    -0.000000     0.000005   112.189121
	   55 B(19,16,20)     =    107.696133    -0.000000    -0.000021   107.696112
	   56 D(1,4,7,8)      =    -58.302824    -0.000000    -0.001970   -58.304794
	   57 D(1,4,7,9)      =     58.054055    -0.000000    -0.001979    58.052076
	   58 D(1,4,7,10)     =    179.945441     0.000000    -0.001874   179.943567
	   59 D(1,14,21,20)   =     11.982747    -0.000000    -0.001214    11.981533
	   60 D(2,1,4,5)      =   -178.726936     0.000000     0.000599  -178.726337
	   61 D(2,1,4,6)      =    -62.904269    -0.000000     0.000600   -62.903670
	   62 D(2,1,4,7)      =     59.259016     0.000000     0.000704    59.259720
	   63 D(2,1,14,15)    =    -59.977247     0.000000    -0.000129   -59.977376
	   64 D(2,1,14,21)    =     67.727098     0.000000    -0.000184    67.726914
	   65 D(3,1,4,5)      =     62.178370     0.000000     0.000601    62.178971
	   66 D(3,1,4,6)      =    178.001037    -0.000000     0.000601   178.001639
	   67 D(3,1,4,7)      =    -59.835678     0.000000     0.000706   -59.834972
	   68 D(3,1,14,15)    =     58.652757    -0.000000    -0.000155    58.652602
	   69 D(3,1,14,21)    =   -173.642898    -0.000000    -0.000210  -173.643108
	   70 D(4,1,14,15)    =    179.296584    -0.000000    -0.000209   179.296376
	   71 D(4,1,14,21)    =    -52.999070    -0.000000    -0.000264   -52.999334
	   72 D(4,7,10,11)    =    179.856474    -0.000000    -0.003361   179.853113
	   73 D(4,7,10,12)    =    -60.106933    -0.000000    -0.003372   -60.110305
	   74 D(4,7,10,13)    =     59.801726    -0.000000    -0.003382    59.798344
	   75 D(5,4,1,14)     =    -58.123996     0.000000     0.000688   -58.123308
	   76 D(5,4,7,8)      =   -179.403305    -0.000000    -0.001917  -179.405223
	   77 D(5,4,7,9)      =    -63.046426    -0.000000    -0.001926   -63.048353
	   78 D(5,4,7,10)     =     58.844960    -0.000000    -0.001821    58.843139
	   79 D(6,4,1,14)     =     57.698671     0.000000     0.000689    57.699360
	   80 D(6,4,7,8)      =     62.968062     0.000000    -0.001899    62.966163
	   81 D(6,4,7,9)      =    179.324941    -0.000000    -0.001908   179.323033
	   82 D(6,4,7,10)     =    -58.783672     0.000000    -0.001803   -58.785475
	   83 D(7,4,1,14)     =    179.861956     0.000000     0.000793   179.862749
	   84 D(8,7,10,11)    =     57.958368    -0.000000    -0.003266    57.955102
	   85 D(8,7,10,12)    =    177.994961    -0.000000    -0.003277   177.991684
	   86 D(8,7,10,13)    =    -62.096380    -0.000000    -0.003288   -62.099668
	   87 D(9,7,10,11)    =    -58.072328    -0.000000    -0.003263   -58.075591
	   88 D(9,7,10,12)    =     61.964265    -0.000000    -0.003274    61.960991
	   89 D(9,7,10,13)    =   -178.127076    -0.000000    -0.003285  -178.130361
	   90 D(14,21,20,16)  =    115.399424     0.000000     0.001204   115.400628
	   91 D(15,14,21,20)  =    137.925367    -0.000000    -0.001220   137.924148
	   92 D(17,16,20,21)  =     62.483256     0.000000    -0.000007    62.483250
	   93 D(18,16,20,21)  =    -59.611859    -0.000000    -0.000020   -59.611879
	   94 D(19,16,20,21)  =   -178.616591    -0.000000    -0.000015  -178.616607
	 ---------------------------------------------------------------------------
	Successfully symmetrized geometry.

  ==> Convergence Check <==

  Measures of convergence in internal coordinates in au.
  Criteria marked as inactive (o), active & met (*), and active & unmet ( ).
  ---------------------------------------------------------------------------------------------
   Step     Total Energy     Delta E     MAX Force     RMS Force      MAX Disp      RMS Disp   
  ---------------------------------------------------------------------------------------------
    Convergence Criteria             o    1.50e-05 *    1.00e-05 *    6.00e-05 *    4.00e-05 *
  ---------------------------------------------------------------------------------------------
     36    -347.18979777    6.39e-10 o    9.21e-07 *    1.90e-07 *    5.90e-05 *    2.13e-05 *  ~
  ---------------------------------------------------------------------------------------------


  **** Optimization is complete! (in 36 steps) ****

  ==> Optimization Summary <==

  Measures of convergence in internal coordinates in au.
  --------------------------------------------------------------------------------------------------------------- ~
   Step         Total Energy             Delta E       MAX Force       RMS Force        MAX Disp        RMS Disp  ~
  --------------------------------------------------------------------------------------------------------------- ~
      1    -347.189797747157   -347.189797747157      0.00006088      0.00001085      0.00077012      0.00013920  ~
      2    -347.189797764418     -0.000000017261      0.00001297      0.00000279      0.00016573      0.00006034  ~
      3    -347.189797766550     -0.000000002131      0.00000419      0.00000087      0.00020504      0.00006661  ~
      4    -347.189797766774     -0.000000000224      0.00000398      0.00000059      0.00033639      0.00011045  ~
      5    -347.189797766544      0.000000000229      0.00000391      0.00000071      0.00051670      0.00017123  ~
      6    -347.189797765540      0.000000001004      0.00000368      0.00000086      0.00065498      0.00022091  ~
      7    -347.189797765473      0.000000000066      0.00000698      0.00000134      0.00063216      0.00021719  ~
      8    -347.189797766333     -0.000000000860      0.00000525      0.00000110      0.00045674      0.00016160  ~
      9    -347.189797766946     -0.000000000612      0.00000397      0.00000082      0.00026530      0.00010048  ~
     10    -347.189797767233     -0.000000000288      0.00000322      0.00000052      0.00014781      0.00006059  ~
     11    -347.189797767969     -0.000000000736      0.00000308      0.00000045      0.00011501      0.00003923  ~
     12    -347.189797767702      0.000000000267      0.00000296      0.00000040      0.00009875      0.00003056  ~
     13    -347.189797767859     -0.000000000157      0.00000281      0.00000038      0.00009244      0.00002888  ~
     14    -347.189797767794      0.000000000065      0.00000271      0.00000037      0.00009089      0.00002962  ~
     15    -347.189797768044     -0.000000000250      0.00000255      0.00000035      0.00009259      0.00003140  ~
     16    -347.189797768028      0.000000000015      0.00000247      0.00000036      0.00009537      0.00003305  ~
     17    -347.189797768185     -0.000000000156      0.00000231      0.00000033      0.00009905      0.00003480  ~
     18    -347.189797768182      0.000000000002      0.00000225      0.00000034      0.00010253      0.00003627  ~
     19    -347.189797768361     -0.000000000179      0.00000210      0.00000032      0.00010586      0.00003757  ~
     20    -347.189797768138      0.000000000223      0.00000205      0.00000033      0.00010849      0.00003857  ~
     21    -347.189797768532     -0.000000000394      0.00000190      0.00000030      0.00011059      0.00003933  ~
     22    -347.189797768036      0.000000000497      0.00000186      0.00000031      0.00011160      0.00003970  ~
     23    -347.189797768003      0.000000000033      0.00000171      0.00000028      0.00011181      0.00003983  ~
     24    -347.189797768340     -0.000000000337      0.00000169      0.00000030      0.00011098      0.00003953  ~
     25    -347.189797767998      0.000000000342      0.00000155      0.00000027      0.00010939      0.00003898  ~
     26    -347.189797768231     -0.000000000233      0.00000153      0.00000028      0.00010681      0.00003804  ~
     27    -347.189797768396     -0.000000000164      0.00000139      0.00000025      0.00010355      0.00003696  ~
     28    -347.189797768351      0.000000000044      0.00000138      0.00000026      0.00009959      0.00003555  ~
     29    -347.189797768650     -0.000000000299      0.00000126      0.00000024      0.00009515      0.00003402  ~
     30    -347.189797768467      0.000000000184      0.00000125      0.00000024      0.00009011      0.00003220  ~
     31    -347.189797768789     -0.000000000322      0.00000114      0.00000022      0.00008494      0.00003035  ~
     32    -347.189797768530      0.000000000259      0.00000113      0.00000022      0.00007961      0.00002848  ~
     33    -347.189797768550     -0.000000000021      0.00000103      0.00000020      0.00007429      0.00002661  ~
     34    -347.189797768628     -0.000000000078      0.00000102      0.00000021      0.00006896      0.00002474  ~
     35    -347.189797768878     -0.000000000249      0.00000093      0.00000019      0.00006393      0.00002300  ~
     36    -347.189797768239      0.000000000639      0.00000092      0.00000019      0.00005904      0.00002128  ~
  --------------------------------------------------------------------------------------------------------------- ~

	Writing optimization data to binary file.
	Final energy is   -347.1897977682390
	Final (previous) structure:
	Cartesian Geometry (in Angstrom)
	    C     0.8626236182   1.3723161203   0.0269501794
	    H     1.1291793846   1.5229320938  -1.0163862825
	    H     1.5346868843   1.9749874813   0.6331693744
	    C     0.9894083711  -0.0947619298   0.3966629036
	    H     0.6949273448  -0.2137385079   1.4361339119
	    H     0.2820892809  -0.6631163636  -0.1996933901
	    C     2.4053389078  -0.6342346344   0.1882213016
	    H     2.6952294678  -0.5013825355  -0.8518715130
	    H     3.1088997092  -0.0518573373   0.7797810329
	    C     2.5321253291  -2.1105615387   0.5618986695
	    H     3.5440401415  -2.4694409759   0.4029015969
	    H     2.2830169939  -2.2725670080   1.6065838815
	    H     1.8643392281  -2.7232940466  -0.0361715010
	    O    -0.4736553974   1.7736729579   0.2497200224
	    H    -0.5738455793   2.6909175729   0.0354379771
	    C    -3.3220228642  -0.5213942902  -0.2113548007
	    H    -3.9770437837   0.2591243986   0.1714479269
	    H    -2.8578782071  -1.0226827742   0.6356578421
	    H    -3.9306409939  -1.2434007402  -0.7402905517
	    O    -2.3785423989  -0.0225120358  -1.1100889842
	    H    -1.8171623416   0.5996755375  -0.6608935187
	Saving final (previous) structure.
	Removing binary optimization data file.
			--------------------------
			 OPTKING Finished Execution 
			--------------------------

    Final optimized geometry and variables:
    Molecular point group: c1
    Full point group: C1

    Geometry (in Angstrom), charge = 0, multiplicity = 1:

    C            0.862623618218     1.372316120295     0.026950179390
    H            1.129179384606     1.522932093792    -1.016386282541
    H            1.534686884329     1.974987481274     0.633169374442
    C            0.989408371139    -0.094761929754     0.396662903632
    H            0.694927344785    -0.213738507907     1.436133911924
    H            0.282089280894    -0.663116363564    -0.199693390147
    C            2.405338907816    -0.634234634398     0.188221301583
    H            2.695229467769    -0.501382535472    -0.851871513002
    H            3.108899709211    -0.051857337312     0.779781032869
    C            2.532125329063    -2.110561538725     0.561898669478
    H            3.544040141501    -2.469440975897     0.402901596873
    H            2.283016993915    -2.272567008013     1.606583881479
    H            1.864339228078    -2.723294046593    -0.036171500950
    O           -0.473655397429     1.773672957857     0.249720022362
    H           -0.573845579319     2.690917572874     0.035437977071
    C           -3.322022864152    -0.521394290245    -0.211354800701
    H           -3.977043783700     0.259124398613     0.171447926855
    H           -2.857878207091    -1.022682774232     0.635657842121
    H           -3.930640993905    -1.243400740178    -0.740290551732
    O           -2.378542398924    -0.022512035759    -1.110088984187
    H           -1.817162341607     0.599675537489    -0.660893518668

	Removing binary optimization data file.
	Cleaning optimization helper files.

    Psi4 stopped on: Friday, 05 October 2018 02:51PM
    Psi4 wall time for execution: 0:01:58.11

*** Psi4 exiting successfully. Buy a developer a beer!
