
    -----------------------------------------------------------------------
          Psi4: An Open-Source Ab Initio Electronic Structure Package
                               Psi4 1.2.1 release

                         Git: Rev {HEAD} 406f4de 


    R. M. Parrish, L. A. Burns, D. G. A. Smith, A. C. Simmonett,
    A. E. DePrince III, E. G. Hohenstein, U. Bozkaya, A. Yu. Sokolov,
    R. Di Remigio, R. M. Richard, J. F. Gonthier, A. M. James,
    H. R. McAlexander, A. Kumar, M. Saitow, X. Wang, B. P. Pritchard,
    P. Verma, H. F. Schaefer III, K. Patkowski, R. A. King, E. F. Valeev,
    F. A. Evangelista, J. M. Turney, T. D. Crawford, and C. D. Sherrill,
    J. Chem. Theory Comput. 13(7) pp 3185--3197 (2017).
    (doi: 10.1021/acs.jctc.7b00174)


                         Additional Contributions by
    P. Kraus, H. Kruse, M. H. Lechner, M. C. Schieber, and R. A. Shaw

    -----------------------------------------------------------------------


    Psi4 started on: Thursday, 06 December 2018 04:29PM

    Process ID: 229808
    Host:       wr86
    PSIDATADIR: /usr/local/hpc1/software_molmod/psi4/psi4conda/share/psi4
    Memory:     500.0 MiB
    Threads:    16
    
  ==> Input File <==

--------------------------------------------------------------------------
memory 100 Gb

molecule conf_01 {
0 1
  C     0.862623618218     1.372316120295     0.026950179390
  H     1.129179384606     1.522932093792    -1.016386282541
  H     1.534686884329     1.974987481274     0.633169374442
  C     0.989408371139    -0.094761929754     0.396662903632
  H     0.694927344785    -0.213738507907     1.436133911924
  H     0.282089280894    -0.663116363564    -0.199693390147
  C     2.405338907816    -0.634234634398     0.188221301583
  H     2.695229467769    -0.501382535472    -0.851871513002
  H     3.108899709211    -0.051857337312     0.779781032869
  C     2.532125329063    -2.110561538725     0.561898669478
  H     3.544040141501    -2.469440975897     0.402901596873
  H     2.283016993915    -2.272567008013     1.606583881479
  H     1.864339228078    -2.723294046593    -0.036171500950
  O    -0.473655397429     1.773672957857     0.249720022362
  H    -0.573845579319     2.690917572874     0.035437977071
  C    -3.322022864152    -0.521394290245    -0.211354800701
  H    -3.977043783700     0.259124398613     0.171447926855
  H    -2.857878207091    -1.022682774232     0.635657842121
  H    -3.930640993905    -1.243400740178    -0.740290551732
  O    -2.378542398924    -0.022512035759    -1.110088984187
  H    -1.817162341607     0.599675537489    -0.660893518668
}
set globals {
  reference rhf
  basis 6-31G(d)
}
frequency('scf', dertype=1)
--------------------------------------------------------------------------

  Memory set to  93.132 GiB by Python driver.
gradient() will perform analytic gradient computation.

*** tstart() called on wr86
*** at Thu Dec  6 16:29:46 2018

   => Loading Basis Set <=

    Name: 6-31G(D)
    Role: ORBITAL
    Keyword: BASIS
    atoms 1, 4, 7, 10, 16                     entry C          line   111 file /usr/local/hpc1/software_molmod/psi4/psi4conda/share/psi4/basis/6-31g_d_.gbs 
    atoms 2-3, 5-6, 8-9, 11-13, 15, 17-19, 21 entry H          line    44 file /usr/local/hpc1/software_molmod/psi4/psi4conda/share/psi4/basis/6-31g_d_.gbs 
    atoms 14, 20                              entry O          line   145 file /usr/local/hpc1/software_molmod/psi4/psi4conda/share/psi4/basis/6-31g_d_.gbs 


         ---------------------------------------------------------
                                   SCF
            by Justin Turney, Rob Parrish, Andy Simmonett
                             and Daniel Smith
                              RHF Reference
                       16 Threads,  95367 MiB Core
         ---------------------------------------------------------

  ==> Geometry <==

    Molecular point group: c1
    Full point group: C1

    Geometry (in Angstrom), charge = 0, multiplicity = 1:

       Center              X                  Y                   Z               Mass       
    ------------   -----------------  -----------------  -----------------  -----------------
         C            0.862623618218     1.372316120295     0.026950179390    12.000000000000
         H            1.129179384606     1.522932093792    -1.016386282541     1.007825032070
         H            1.534686884329     1.974987481274     0.633169374442     1.007825032070
         C            0.989408371139    -0.094761929754     0.396662903632    12.000000000000
         H            0.694927344785    -0.213738507907     1.436133911924     1.007825032070
         H            0.282089280894    -0.663116363564    -0.199693390147     1.007825032070
         C            2.405338907816    -0.634234634398     0.188221301583    12.000000000000
         H            2.695229467769    -0.501382535472    -0.851871513002     1.007825032070
         H            3.108899709211    -0.051857337312     0.779781032869     1.007825032070
         C            2.532125329063    -2.110561538725     0.561898669478    12.000000000000
         H            3.544040141501    -2.469440975897     0.402901596873     1.007825032070
         H            2.283016993915    -2.272567008013     1.606583881479     1.007825032070
         H            1.864339228078    -2.723294046593    -0.036171500950     1.007825032070
         O           -0.473655397429     1.773672957857     0.249720022362    15.994914619560
         H           -0.573845579319     2.690917572874     0.035437977071     1.007825032070
         C           -3.322022864152    -0.521394290245    -0.211354800701    12.000000000000
         H           -3.977043783700     0.259124398613     0.171447926855     1.007825032070
         H           -2.857878207091    -1.022682774232     0.635657842121     1.007825032070
         H           -3.930640993905    -1.243400740178    -0.740290551732     1.007825032070
         O           -2.378542398924    -0.022512035759    -1.110088984187    15.994914619560
         H           -1.817162341607     0.599675537489    -0.660893518668     1.007825032070

  Running in c1 symmetry.

  Rotational constants: A =      0.09591  B =      0.03167  C =      0.02532 [cm^-1]
  Rotational constants: A =   2875.43230  B =    949.56215  C =    759.09416 [MHz]
  Nuclear repulsion =  318.769787405433192

  Charge       = 0
  Multiplicity = 1
  Electrons    = 60
  Nalpha       = 30
  Nbeta        = 30

  ==> Algorithm <==

  SCF Algorithm Type is DF.
  DIIS enabled.
  MOM disabled.
  Fractional occupation disabled.
  Guess Type is SAD.
  Energy threshold   = 1.00e-08
  Density threshold  = 1.00e-08
  Integral threshold = 0.00e+00

  ==> Primary Basis <==

  Basis Set: 6-31G(D)
    Blend: 6-31G(D)
    Number of shells: 70
    Number of basis function: 133
    Number of Cartesian functions: 133
    Spherical Harmonics?: false
    Max angular momentum: 2

   => Loading Basis Set <=

    Name: (6-31G(D) AUX)
    Role: JKFIT
    Keyword: DF_BASIS_SCF
    atoms 1, 4, 7, 10, 16                     entry C          line   121 file /usr/local/hpc1/software_molmod/psi4/psi4conda/share/psi4/basis/cc-pvdz-jkfit.gbs 
    atoms 2-3, 5-6, 8-9, 11-13, 15, 17-19, 21 entry H          line    51 file /usr/local/hpc1/software_molmod/psi4/psi4conda/share/psi4/basis/cc-pvdz-jkfit.gbs 
    atoms 14, 20                              entry O          line   221 file /usr/local/hpc1/software_molmod/psi4/psi4conda/share/psi4/basis/cc-pvdz-jkfit.gbs 

  ==> Pre-Iterations <==

   -------------------------------------------------------
    Irrep   Nso     Nmo     Nalpha   Nbeta   Ndocc  Nsocc
   -------------------------------------------------------
     A        133     133       0       0       0       0
   -------------------------------------------------------
    Total     133     133      30      30      30       0
   -------------------------------------------------------

  ==> Integral Setup <==

  ==> DiskDFJK: Density-Fitted J/K Matrices <==

    J tasked:                  Yes
    K tasked:                  Yes
    wK tasked:                  No
    OpenMP threads:             16
    Integrals threads:          16
    Memory (MB):             71525
    Algorithm:                Core
    Integral Cache:           NONE
    Schwarz Cutoff:          1E-12
    Fitting Condition:       1E-12

   => Auxiliary Basis Set <=

  Basis Set: (6-31G(D) AUX)
    Blend: CC-PVDZ-JKFIT
    Number of shells: 294
    Number of basis function: 917
    Number of Cartesian functions: 917
    Spherical Harmonics?: false
    Max angular momentum: 3

  Minimum eigenvalue in the overlap matrix is 3.5701956090E-03.
  Using Symmetric Orthogonalization.

  SCF Guess: Superposition of Atomic Densities via on-the-fly atomic UHF.

  ==> Iterations <==

                           Total Energy        Delta E     RMS |[F,P]|

   @DF-RHF iter   0:  -349.55547022742280   -3.49555e+02   1.08447e-01 
   @DF-RHF iter   1:  -347.00541008789708    2.55006e+00   1.14266e-02 
   @DF-RHF iter   2:  -347.16331443354272   -1.57904e-01   6.17608e-03 DIIS
   @DF-RHF iter   3:  -347.18492531633859   -2.16109e-02   2.29135e-03 DIIS
   @DF-RHF iter   4:  -347.18957203284435   -4.64672e-03   4.20950e-04 DIIS
   @DF-RHF iter   5:  -347.18978033919223   -2.08306e-04   1.18785e-04 DIIS
   @DF-RHF iter   6:  -347.18979597211114   -1.56329e-05   4.15767e-05 DIIS
   @DF-RHF iter   7:  -347.18979761189405   -1.63978e-06   1.09148e-05 DIIS
   @DF-RHF iter   8:  -347.18979775128770   -1.39394e-07   4.12831e-06 DIIS
   @DF-RHF iter   9:  -347.18979776714684   -1.58591e-08   1.00108e-06 DIIS
   @DF-RHF iter  10:  -347.18979776851836   -1.37152e-09   2.22037e-07 DIIS
   @DF-RHF iter  11:  -347.18979776857964   -6.12772e-11   6.50081e-08 DIIS
   @DF-RHF iter  12:  -347.18979776858441   -4.77485e-12   2.22692e-08 DIIS
   @DF-RHF iter  13:  -347.18979776858492   -5.11591e-13   5.80146e-09 DIIS

  ==> Post-Iterations <==

    Orbital Energies [Eh]
    ---------------------

    Doubly Occupied:                                                      

       1A    -20.576763     2A    -20.526207     3A    -11.279754  
       4A    -11.248402     5A    -11.222900     6A    -11.217592  
       7A    -11.212150     8A     -1.379624     9A     -1.334335  
      10A     -1.076696    11A     -0.982491    12A     -0.906186  
      13A     -0.863962    14A     -0.803102    15A     -0.710271  
      16A     -0.679264    17A     -0.664169    18A     -0.611042  
      19A     -0.602587    20A     -0.600082    21A     -0.574421  
      22A     -0.569509    23A     -0.530180    24A     -0.521630  
      25A     -0.480112    26A     -0.478270    27A     -0.474088  
      28A     -0.469751    29A     -0.450657    30A     -0.418208  

    Virtual:                                                              

      31A      0.211177    32A      0.229866    33A      0.261343  
      34A      0.270760    35A      0.277029    36A      0.298072  
      37A      0.323228    38A      0.334225    39A      0.337040  
      40A      0.340213    41A      0.340905    42A      0.346175  
      43A      0.351409    44A      0.363890    45A      0.388948  
      46A      0.422657    47A      0.435321    48A      0.453566  
      49A      0.480076    50A      0.698021    51A      0.738029  
      52A      0.747871    53A      0.749163    54A      0.770664  
      55A      0.789008    56A      0.798259    57A      0.817429  
      58A      0.845102    59A      0.896577    60A      0.916888  
      61A      0.964831    62A      0.987274    63A      1.017252  
      64A      1.067540    65A      1.084712    66A      1.111491  
      67A      1.143295    68A      1.146875    69A      1.157460  
      70A      1.160860    71A      1.166580    72A      1.182829  
      73A      1.192293    74A      1.199562    75A      1.213075  
      76A      1.227100    77A      1.231788    78A      1.238464  
      79A      1.259927    80A      1.267742    81A      1.295007  
      82A      1.316112    83A      1.369276    84A      1.426175  
      85A      1.497549    86A      1.580920    87A      1.631113  
      88A      1.669531    89A      1.717035    90A      1.746333  
      91A      1.765857    92A      1.791730    93A      1.802737  
      94A      1.848165    95A      1.915649    96A      2.008168  
      97A      2.060275    98A      2.063420    99A      2.104054  
     100A      2.130239   101A      2.225756   102A      2.234832  
     103A      2.270235   104A      2.324589   105A      2.348562  
     106A      2.364893   107A      2.417456   108A      2.424654  
     109A      2.481434   110A      2.500319   111A      2.535161  
     112A      2.609717   113A      2.630924   114A      2.669081  
     115A      2.735523   116A      2.749306   117A      2.783116  
     118A      2.790572   119A      2.794283   120A      2.835705  
     121A      2.892194   122A      2.921970   123A      2.995564  
     124A      3.141540   125A      3.213291   126A      3.254496  
     127A      4.225138   128A      4.366701   129A      4.577852  
     130A      4.662015   131A      4.694916   132A      4.802275  
     133A      4.959738  

    Final Occupation by Irrep:
              A 
    DOCC [    30 ]

  Energy converged.

  @DF-RHF Final Energy:  -347.18979776858492

   => Energetics <=

    Nuclear Repulsion Energy =            318.7697874054331919
    One-Electron Energy =               -1104.9903613801707252
    Two-Electron Energy =                 439.0307762061526660
    Total Energy =                       -347.1897977685849241



Properties will be evaluated at   0.000000,   0.000000,   0.000000 [a0]

Properties computed using the SCF density matrix

  Nuclear Dipole Moment: [e a0]
     X:     3.7173      Y:    -3.8482      Z:     2.0544

  Electronic Dipole Moment: [e a0]
     X:    -3.0191      Y:     4.5219      Z:    -1.5537

  Dipole Moment: [e a0]
     X:     0.6982      Y:     0.6737      Z:     0.5007     Total:     1.0918

  Dipole Moment: [D]
     X:     1.7746      Y:     1.7123      Z:     1.2725     Total:     2.7750


*** tstop() called on wr86 at Thu Dec  6 16:29:49 2018
Module time:
	user time   =      25.42 seconds =       0.42 minutes
	system time =       1.20 seconds =       0.02 minutes
	total time  =          3 seconds =       0.05 minutes
Total time:
	user time   =      25.42 seconds =       0.42 minutes
	system time =       1.20 seconds =       0.02 minutes
	total time  =          3 seconds =       0.05 minutes

*** tstart() called on wr86
*** at Thu Dec  6 16:29:49 2018


         ------------------------------------------------------------
                                   SCF GRAD                          
                          Rob Parrish, Justin Turney,                
                       Andy Simmonett, and Alex Sokolov              
         ------------------------------------------------------------

  ==> Geometry <==

    Molecular point group: c1
    Full point group: C1

    Geometry (in Angstrom), charge = 0, multiplicity = 1:

       Center              X                  Y                   Z               Mass       
    ------------   -----------------  -----------------  -----------------  -----------------
         C            0.862623618218     1.372316120295     0.026950179390    12.000000000000
         H            1.129179384606     1.522932093792    -1.016386282541     1.007825032070
         H            1.534686884329     1.974987481274     0.633169374442     1.007825032070
         C            0.989408371139    -0.094761929754     0.396662903632    12.000000000000
         H            0.694927344785    -0.213738507907     1.436133911924     1.007825032070
         H            0.282089280894    -0.663116363564    -0.199693390147     1.007825032070
         C            2.405338907816    -0.634234634398     0.188221301583    12.000000000000
         H            2.695229467769    -0.501382535472    -0.851871513002     1.007825032070
         H            3.108899709211    -0.051857337312     0.779781032869     1.007825032070
         C            2.532125329063    -2.110561538725     0.561898669478    12.000000000000
         H            3.544040141501    -2.469440975897     0.402901596873     1.007825032070
         H            2.283016993915    -2.272567008013     1.606583881479     1.007825032070
         H            1.864339228078    -2.723294046593    -0.036171500950     1.007825032070
         O           -0.473655397429     1.773672957857     0.249720022362    15.994914619560
         H           -0.573845579319     2.690917572874     0.035437977071     1.007825032070
         C           -3.322022864152    -0.521394290245    -0.211354800701    12.000000000000
         H           -3.977043783700     0.259124398613     0.171447926855     1.007825032070
         H           -2.857878207091    -1.022682774232     0.635657842121     1.007825032070
         H           -3.930640993905    -1.243400740178    -0.740290551732     1.007825032070
         O           -2.378542398924    -0.022512035759    -1.110088984187    15.994914619560
         H           -1.817162341607     0.599675537489    -0.660893518668     1.007825032070

  Nuclear repulsion =  318.769787405433192

  ==> Basis Set <==

  Basis Set: 6-31G(D)
    Blend: 6-31G(D)
    Number of shells: 70
    Number of basis function: 133
    Number of Cartesian functions: 133
    Spherical Harmonics?: false
    Max angular momentum: 2

  ==> DFJKGrad: Density-Fitted SCF Gradients <==

    Gradient:                    1
    J tasked:                  Yes
    K tasked:                  Yes
    wK tasked:                  No
    OpenMP threads:             16
    Integrals threads:          16
    Memory (MB):             71525
    Schwarz Cutoff:          0E+00
    Fitting Condition:       1E-12

   => Auxiliary Basis Set <=

  Basis Set: (6-31G(D) AUX)
    Blend: CC-PVDZ-JKFIT
    Number of shells: 294
    Number of basis function: 917
    Number of Cartesian functions: 917
    Spherical Harmonics?: false
    Max angular momentum: 3


  -Total Gradient:
     Atom            X                  Y                   Z
    ------   -----------------  -----------------  -----------------
       1        0.000001117366    -0.000000115599    -0.000000098069
       2       -0.000000087676    -0.000000109928     0.000000184175
       3       -0.000000113582    -0.000000199164    -0.000000074328
       4       -0.000000247753    -0.000000176262     0.000000297979
       5        0.000000067256     0.000000181450    -0.000000039332
       6        0.000000260583     0.000000062765     0.000000075053
       7       -0.000000004273     0.000000255679    -0.000000486677
       8       -0.000000103033    -0.000000027462     0.000000047887
       9       -0.000000046287    -0.000000222251     0.000000029888
      10       -0.000000075399    -0.000000026873     0.000000171495
      11       -0.000000030899     0.000000097662     0.000000081921
      12       -0.000000081645     0.000000041985    -0.000000094902
      13        0.000000137425     0.000000042042    -0.000000113848
      14       -0.000000734491    -0.000000034202     0.000000207559
      15       -0.000000013391    -0.000000126203     0.000000152968
      16       -0.000000673343    -0.000000407735     0.000000538314
      17        0.000000089150    -0.000000163432    -0.000000036382
      18       -0.000000118786     0.000000079824    -0.000000130518
      19        0.000000025381     0.000000045281     0.000000089234
      20        0.000000815035    -0.000000260547     0.000000643452
      21       -0.000000181633     0.000001062966    -0.000001445871


*** tstop() called on wr86 at Thu Dec  6 16:29:50 2018
Module time:
	user time   =      22.43 seconds =       0.37 minutes
	system time =       0.72 seconds =       0.01 minutes
	total time  =          1 seconds =       0.02 minutes
Total time:
	user time   =      47.89 seconds =       0.80 minutes
	system time =       1.92 seconds =       0.03 minutes
	total time  =          4 seconds =       0.07 minutes

  Based on options and gradient (rms=8.25E-07), recommend projecting translations and projecting rotations.
hessian() will perform frequency computation by finite difference of analytic gradients.

-------------------------------------------------------------

  Using finite-differences of gradients to determine vibrational frequencies and 
  normal modes.  Resulting frequencies are only valid at stationary points.
	Generating geometries for use with 3-point formula.
	Displacement size will be 5.00e-03.
	Number of atoms is 21.
	Number of irreps is 1.
	Number of SALCS is 57.
	Translations projected? 1. Rotations projected? 1.
	Index of salcs per irrep:
	 1 :  0  1  2  3  4  5  6  7  8  9  10  11  12  13  14  15  16  17  18  19  20  21  22  23  24  25  26  27  28  29  30  31  32  33  34  35  36  37  38  39  40  41  42  43  44  45  46  47  48  49  50  51  52  53  54  55  56 
	Number of SALC's per irrep:
		 Irrep 1: 57
	Number of geometries (including reference) is 115.
	Number of displacements per irrep:
	  Irrep 1: 114

  //>>>>>>>>>>>>>>>>>>>>>>>>>>>>>>>>>>>//
  //   Loading displacement 1 of 115   //
  //<<<<<<<<<<<<<<<<<<<<<<<<<<<<<<<<<<<//
gradient() will perform analytic gradient computation.

*** tstart() called on wr86
*** at Thu Dec  6 16:29:50 2018

   => Loading Basis Set <=

    Name: 6-31G(D)
    Role: ORBITAL
    Keyword: BASIS
    atoms 1, 4, 7, 10, 16                     entry C          line   111 file /usr/local/hpc1/software_molmod/psi4/psi4conda/share/psi4/basis/6-31g_d_.gbs 
    atoms 2-3, 5-6, 8-9, 11-13, 15, 17-19, 21 entry H          line    44 file /usr/local/hpc1/software_molmod/psi4/psi4conda/share/psi4/basis/6-31g_d_.gbs 
    atoms 14, 20                              entry O          line   145 file /usr/local/hpc1/software_molmod/psi4/psi4conda/share/psi4/basis/6-31g_d_.gbs 


         ---------------------------------------------------------
                                   SCF
            by Justin Turney, Rob Parrish, Andy Simmonett
                             and Daniel Smith
                              RHF Reference
                       16 Threads,  95367 MiB Core
         ---------------------------------------------------------

  ==> Geometry <==

    Molecular point group: c1
    Full point group: C1

    Geometry (in Angstrom), charge = 0, multiplicity = 1:

       Center              X                  Y                   Z               Mass       
    ------------   -----------------  -----------------  -----------------  -----------------
         C            0.861919471318     1.372297156425     0.026934545206    12.000000000000
         H            1.129304583269     1.522896886808    -1.016404048106     1.007825032070
         H            1.534826147813     1.974959520753     0.633146165476     1.007825032070
         C            0.989500923240    -0.094780069756     0.396661447558    12.000000000000
         H            0.695019757295    -0.213739820437     1.436134342355     1.007825032070
         H            0.282167721457    -0.663124623600    -0.199687525030     1.007825032070
         C            2.405418929917    -0.634286396851     0.188221749082    12.000000000000
         H            2.695309937277    -0.501451029204    -0.851873077907     1.007825032070
         H            3.108994143859    -0.051918943306     0.779774029812     1.007825032070
         C            2.532173343572    -2.110612438204     0.561913386397    12.000000000000
         H            3.544079771387    -2.469516003178     0.402917410967     1.007825032070
         H            2.283063922219    -2.272602040007     1.606600800053     1.007825032070
         H            1.864372137612    -2.723335964313    -0.036149120254     1.007825032070
         O           -0.473521548630     1.773685982279     0.249703655696    15.994914619560
         H           -0.573691800913     2.690930715151     0.035412796560     1.007825032070
         C           -3.321941292452    -0.521322321105    -0.211341622708    12.000000000000
         H           -3.976943887028     0.259214749184     0.171454982085     1.007825032070
         H           -2.857805762857    -1.022612789365     0.635674847414     1.007825032070
         H           -3.930576796042    -1.243320425706    -0.740268774116     1.007825032070
         O           -2.378451878424    -0.022469972340    -1.110083012346    15.994914619560
         H           -1.817056865226     0.599709521343    -0.660895046743     1.007825032070

  Running in c1 symmetry.

  Rotational constants: A =      0.09592  B =      0.03167  C =      0.02532 [cm^-1]
  Rotational constants: A =   2875.54342  B =    949.58158  C =    759.11309 [MHz]
  Nuclear repulsion =  318.777987693810189

  Charge       = 0
  Multiplicity = 1
  Electrons    = 60
  Nalpha       = 30
  Nbeta        = 30

  ==> Algorithm <==

  SCF Algorithm Type is DF.
  DIIS enabled.
  MOM disabled.
  Fractional occupation disabled.
  Guess Type is SAD.
  Energy threshold   = 1.00e-08
  Density threshold  = 1.00e-08
  Integral threshold = 0.00e+00

  ==> Primary Basis <==

  Basis Set: 6-31G(D)
    Blend: 6-31G(D)
    Number of shells: 70
    Number of basis function: 133
    Number of Cartesian functions: 133
    Spherical Harmonics?: false
    Max angular momentum: 2

   => Loading Basis Set <=

    Name: (6-31G(D) AUX)
    Role: JKFIT
    Keyword: DF_BASIS_SCF
    atoms 1, 4, 7, 10, 16                     entry C          line   121 file /usr/local/hpc1/software_molmod/psi4/psi4conda/share/psi4/basis/cc-pvdz-jkfit.gbs 
    atoms 2-3, 5-6, 8-9, 11-13, 15, 17-19, 21 entry H          line    51 file /usr/local/hpc1/software_molmod/psi4/psi4conda/share/psi4/basis/cc-pvdz-jkfit.gbs 
    atoms 14, 20                              entry O          line   221 file /usr/local/hpc1/software_molmod/psi4/psi4conda/share/psi4/basis/cc-pvdz-jkfit.gbs 

  ==> Pre-Iterations <==

   -------------------------------------------------------
    Irrep   Nso     Nmo     Nalpha   Nbeta   Ndocc  Nsocc
   -------------------------------------------------------
     A        133     133       0       0       0       0
   -------------------------------------------------------
    Total     133     133      30      30      30       0
   -------------------------------------------------------

  ==> Integral Setup <==

  ==> DiskDFJK: Density-Fitted J/K Matrices <==

    J tasked:                  Yes
    K tasked:                  Yes
    wK tasked:                  No
    OpenMP threads:             16
    Integrals threads:          16
    Memory (MB):             71525
    Algorithm:                Core
    Integral Cache:           NONE
    Schwarz Cutoff:          1E-12
    Fitting Condition:       1E-12

   => Auxiliary Basis Set <=

  Basis Set: (6-31G(D) AUX)
    Blend: CC-PVDZ-JKFIT
    Number of shells: 294
    Number of basis function: 917
    Number of Cartesian functions: 917
    Spherical Harmonics?: false
    Max angular momentum: 3

  Minimum eigenvalue in the overlap matrix is 3.5702707586E-03.
  Using Symmetric Orthogonalization.

  SCF Guess: Superposition of Atomic Densities via on-the-fly atomic UHF.

  ==> Iterations <==

                           Total Energy        Delta E     RMS |[F,P]|

   @DF-RHF iter   0:  -349.35274224244290   -3.49353e+02   1.45266e-01 
   @DF-RHF iter   1:  -346.97131177463962    2.38143e+00   1.75232e-02 
   @DF-RHF iter   2:  -347.15776670532796   -1.86455e-01   7.00436e-03 DIIS
   @DF-RHF iter   3:  -347.18465036106420   -2.68837e-02   1.59925e-03 DIIS
   @DF-RHF iter   4:  -347.18951444168363   -4.86408e-03   5.01657e-04 DIIS
   @DF-RHF iter   5:  -347.18976548389446   -2.51042e-04   1.63515e-04 DIIS
   @DF-RHF iter   6:  -347.18979388884952   -2.84050e-05   4.88235e-05 DIIS
   @DF-RHF iter   7:  -347.18979682786733   -2.93902e-06   1.28801e-05 DIIS
   @DF-RHF iter   8:  -347.18979701838475   -1.90517e-07   5.28226e-06 DIIS
   @DF-RHF iter   9:  -347.18979704367064   -2.52859e-08   1.23068e-06 DIIS
   @DF-RHF iter  10:  -347.18979704541107   -1.74043e-09   2.03364e-07 DIIS
   @DF-RHF iter  11:  -347.18979704552339   -1.12323e-10   8.95048e-08 DIIS
   @DF-RHF iter  12:  -347.18979704553311   -9.72022e-12   2.45918e-08 DIIS
   @DF-RHF iter  13:  -347.18979704553448   -1.36424e-12   6.33471e-09 DIIS

  ==> Post-Iterations <==

    Orbital Energies [Eh]
    ---------------------

    Doubly Occupied:                                                      

       1A    -20.576855     2A    -20.526233     3A    -11.279773  
       4A    -11.248419     5A    -11.222894     6A    -11.217575  
       7A    -11.212146     8A     -1.379948     9A     -1.334362  
      10A     -1.076661    11A     -0.982465    12A     -0.906205  
      13A     -0.863944    14A     -0.803069    15A     -0.710493  
      16A     -0.679296    17A     -0.664145    18A     -0.611049  
      19A     -0.602710    20A     -0.600105    21A     -0.574439  
      22A     -0.569534    23A     -0.530205    24A     -0.521630  
      25A     -0.480081    26A     -0.478281    27A     -0.474081  
      28A     -0.469712    29A     -0.450537    30A     -0.418229  

    Virtual:                                                              

      31A      0.211151    32A      0.229887    33A      0.261324  
      34A      0.270757    35A      0.277039    36A      0.298069  
      37A      0.323247    38A      0.334235    39A      0.337050  
      40A      0.340203    41A      0.340905    42A      0.346174  
      43A      0.351404    44A      0.363963    45A      0.388967  
      46A      0.422704    47A      0.435311    48A      0.453566  
      49A      0.480222    50A      0.698108    51A      0.738099  
      52A      0.747881    53A      0.749165    54A      0.770709  
      55A      0.789012    56A      0.798249    57A      0.817418  
      58A      0.845223    59A      0.896566    60A      0.916832  
      61A      0.964851    62A      0.987207    63A      1.017331  
      64A      1.067484    65A      1.084635    66A      1.111326  
      67A      1.143217    68A      1.146852    69A      1.157414  
      70A      1.160835    71A      1.166546    72A      1.182825  
      73A      1.192278    74A      1.199449    75A      1.213075  
      76A      1.227097    77A      1.231754    78A      1.238445  
      79A      1.259916    80A      1.267683    81A      1.294886  
      82A      1.316070    83A      1.369264    84A      1.426105  
      85A      1.497595    86A      1.580913    87A      1.631110  
      88A      1.669526    89A      1.717209    90A      1.746325  
      91A      1.765813    92A      1.791692    93A      1.802694  
      94A      1.848101    95A      1.915593    96A      2.008073  
      97A      2.060250    98A      2.063457    99A      2.103853  
     100A      2.130245   101A      2.225868   102A      2.234856  
     103A      2.270231   104A      2.324594   105A      2.348524  
     106A      2.364759   107A      2.417790   108A      2.424911  
     109A      2.481423   110A      2.500301   111A      2.535300  
     112A      2.609522   113A      2.630957   114A      2.669471  
     115A      2.735504   116A      2.749049   117A      2.783129  
     118A      2.790551   119A      2.794672   120A      2.835918  
     121A      2.892179   122A      2.922082   123A      2.995886  
     124A      3.141770   125A      3.213271   126A      3.254609  
     127A      4.225289   128A      4.366824   129A      4.577777  
     130A      4.661999   131A      4.694809   132A      4.802279  
     133A      4.959681  

    Final Occupation by Irrep:
              A 
    DOCC [    30 ]

  Energy converged.

  @DF-RHF Final Energy:  -347.18979704553448

   => Energetics <=

    Nuclear Repulsion Energy =            318.7779876938101893
    One-Electron Energy =               -1105.0054117308307013
    Two-Electron Energy =                 439.0376269914859790
    Total Energy =                       -347.1897970455344762



Properties will be evaluated at   0.000000,   0.000000,   0.000000 [a0]

Properties computed using the SCF density matrix

  Nuclear Dipole Moment: [e a0]
     X:     3.7184      Y:    -3.8483      Z:     2.0544

  Electronic Dipole Moment: [e a0]
     X:    -3.0217      Y:     4.5221      Z:    -1.5537

  Dipole Moment: [e a0]
     X:     0.6968      Y:     0.6739      Z:     0.5007     Total:     1.0910

  Dipole Moment: [D]
     X:     1.7710      Y:     1.7128      Z:     1.2726     Total:     2.7730


*** tstop() called on wr86 at Thu Dec  6 16:29:53 2018
Module time:
	user time   =      27.09 seconds =       0.45 minutes
	system time =       0.64 seconds =       0.01 minutes
	total time  =          3 seconds =       0.05 minutes
Total time:
	user time   =      75.23 seconds =       1.25 minutes
	system time =       2.58 seconds =       0.04 minutes
	total time  =          7 seconds =       0.12 minutes

*** tstart() called on wr86
*** at Thu Dec  6 16:29:53 2018


         ------------------------------------------------------------
                                   SCF GRAD                          
                          Rob Parrish, Justin Turney,                
                       Andy Simmonett, and Alex Sokolov              
         ------------------------------------------------------------

  ==> Geometry <==

    Molecular point group: c1
    Full point group: C1

    Geometry (in Angstrom), charge = 0, multiplicity = 1:

       Center              X                  Y                   Z               Mass       
    ------------   -----------------  -----------------  -----------------  -----------------
         C            0.861919471318     1.372297156425     0.026934545206    12.000000000000
         H            1.129304583269     1.522896886808    -1.016404048106     1.007825032070
         H            1.534826147813     1.974959520753     0.633146165476     1.007825032070
         C            0.989500923240    -0.094780069756     0.396661447558    12.000000000000
         H            0.695019757295    -0.213739820437     1.436134342355     1.007825032070
         H            0.282167721457    -0.663124623600    -0.199687525030     1.007825032070
         C            2.405418929917    -0.634286396851     0.188221749082    12.000000000000
         H            2.695309937277    -0.501451029204    -0.851873077907     1.007825032070
         H            3.108994143859    -0.051918943306     0.779774029812     1.007825032070
         C            2.532173343572    -2.110612438204     0.561913386397    12.000000000000
         H            3.544079771387    -2.469516003178     0.402917410967     1.007825032070
         H            2.283063922219    -2.272602040007     1.606600800053     1.007825032070
         H            1.864372137612    -2.723335964313    -0.036149120254     1.007825032070
         O           -0.473521548630     1.773685982279     0.249703655696    15.994914619560
         H           -0.573691800913     2.690930715151     0.035412796560     1.007825032070
         C           -3.321941292452    -0.521322321105    -0.211341622708    12.000000000000
         H           -3.976943887028     0.259214749184     0.171454982085     1.007825032070
         H           -2.857805762857    -1.022612789365     0.635674847414     1.007825032070
         H           -3.930576796042    -1.243320425706    -0.740268774116     1.007825032070
         O           -2.378451878424    -0.022469972340    -1.110083012346    15.994914619560
         H           -1.817056865226     0.599709521343    -0.660895046743     1.007825032070

  Nuclear repulsion =  318.777987693810189

  ==> Basis Set <==

  Basis Set: 6-31G(D)
    Blend: 6-31G(D)
    Number of shells: 70
    Number of basis function: 133
    Number of Cartesian functions: 133
    Spherical Harmonics?: false
    Max angular momentum: 2

  ==> DFJKGrad: Density-Fitted SCF Gradients <==

    Gradient:                    1
    J tasked:                  Yes
    K tasked:                  Yes
    wK tasked:                  No
    OpenMP threads:             16
    Integrals threads:          16
    Memory (MB):             71525
    Schwarz Cutoff:          0E+00
    Fitting Condition:       1E-12

   => Auxiliary Basis Set <=

  Basis Set: (6-31G(D) AUX)
    Blend: CC-PVDZ-JKFIT
    Number of shells: 294
    Number of basis function: 917
    Number of Cartesian functions: 917
    Spherical Harmonics?: false
    Max angular momentum: 3


  -Total Gradient:
     Atom            X                  Y                   Z
    ------   -----------------  -----------------  -----------------
       1       -0.000924659090    -0.000070852319    -0.000017292364
       2        0.000112929661     0.000017489058    -0.000079595772
       3        0.000234006046     0.000143157823     0.000144803935
       4        0.000144210419    -0.000008437285     0.000006076065
       5        0.000000087135     0.000017008130    -0.000005256156
       6       -0.000002147454     0.000042868603    -0.000011606453
       7        0.000002951803    -0.000056527024     0.000014568480
       8       -0.000000956547    -0.000000296172    -0.000000149730
       9        0.000000365618    -0.000000902774     0.000001046238
      10        0.000011399772    -0.000001110045    -0.000002066464
      11       -0.000000144003    -0.000003188455     0.000000774620
      12       -0.000000195353     0.000000595296     0.000000064072
      13       -0.000000213989     0.000000320468    -0.000000598064
      14        0.000411115698    -0.000090583689    -0.000048771057
      15        0.000005110006     0.000006983905    -0.000003545851
      16        0.000001754653     0.000001758043    -0.000002404184
      17        0.000000121723    -0.000000335432     0.000000400582
      18       -0.000000307780    -0.000000025991     0.000000626453
      19       -0.000000749664    -0.000000645806     0.000000191900
      20       -0.000003603246    -0.000005895769     0.000000195511
      21        0.000008924591     0.000008619431     0.000002538239


*** tstop() called on wr86 at Thu Dec  6 16:29:54 2018
Module time:
	user time   =      22.99 seconds =       0.38 minutes
	system time =       0.74 seconds =       0.01 minutes
	total time  =          1 seconds =       0.02 minutes
Total time:
	user time   =      98.24 seconds =       1.64 minutes
	system time =       3.32 seconds =       0.06 minutes
	total time  =          8 seconds =       0.13 minutes

  //>>>>>>>>>>>>>>>>>>>>>>>>>>>>>>>>>>>//
  //   Loading displacement 2 of 115   //
  //<<<<<<<<<<<<<<<<<<<<<<<<<<<<<<<<<<<//
gradient() will perform analytic gradient computation.

*** tstart() called on wr86
*** at Thu Dec  6 16:29:54 2018

   => Loading Basis Set <=

    Name: 6-31G(D)
    Role: ORBITAL
    Keyword: BASIS
    atoms 1, 4, 7, 10, 16                     entry C          line   111 file /usr/local/hpc1/software_molmod/psi4/psi4conda/share/psi4/basis/6-31g_d_.gbs 
    atoms 2-3, 5-6, 8-9, 11-13, 15, 17-19, 21 entry H          line    44 file /usr/local/hpc1/software_molmod/psi4/psi4conda/share/psi4/basis/6-31g_d_.gbs 
    atoms 14, 20                              entry O          line   145 file /usr/local/hpc1/software_molmod/psi4/psi4conda/share/psi4/basis/6-31g_d_.gbs 


         ---------------------------------------------------------
                                   SCF
            by Justin Turney, Rob Parrish, Andy Simmonett
                             and Daniel Smith
                              RHF Reference
                       16 Threads,  95367 MiB Core
         ---------------------------------------------------------

  ==> Geometry <==

    Molecular point group: c1
    Full point group: C1

    Geometry (in Angstrom), charge = 0, multiplicity = 1:

       Center              X                  Y                   Z               Mass       
    ------------   -----------------  -----------------  -----------------  -----------------
         C            0.863327765118     1.372335084165     0.026965813574    12.000000000000
         H            1.129054185942     1.522967300776    -1.016368516976     1.007825032070
         H            1.534547620845     1.975015441795     0.633192583408     1.007825032070
         C            0.989315819037    -0.094743789752     0.396664359706    12.000000000000
         H            0.694834932275    -0.213737195377     1.436133481493     1.007825032070
         H            0.282010840331    -0.663108103528    -0.199699255264     1.007825032070
         C            2.405258885715    -0.634182871945     0.188220854085    12.000000000000
         H            2.695148998261    -0.501314041741    -0.851869948097     1.007825032070
         H            3.108805274563    -0.051795731318     0.779788035926     1.007825032070
         C            2.532077314554    -2.110510639246     0.561883952559    12.000000000000
         H            3.544000511614    -2.469365948617     0.402885782779     1.007825032070
         H            2.282970065611    -2.272531976020     1.606566962905     1.007825032070
         H            1.864306318544    -2.723252128873    -0.036193881646     1.007825032070
         O           -0.473789246228     1.773659933435     0.249736389029    15.994914619560
         H           -0.573999357725     2.690904430597     0.035463157582     1.007825032070
         C           -3.322104435852    -0.521466259385    -0.211367978694    12.000000000000
         H           -3.977143680372     0.259034048042     0.171440871625     1.007825032070
         H           -2.857950651325    -1.022752759099     0.635640836828     1.007825032070
         H           -3.930705191768    -1.243481054651    -0.740312329348     1.007825032070
         O           -2.378632919424    -0.022554099178    -1.110094956028    15.994914619560
         H           -1.817267817988     0.599641553635    -0.660891990593     1.007825032070

  Running in c1 symmetry.

  Rotational constants: A =      0.09591  B =      0.03167  C =      0.02532 [cm^-1]
  Rotational constants: A =   2875.32122  B =    949.54269  C =    759.07521 [MHz]
  Nuclear repulsion =  318.761593622853752

  Charge       = 0
  Multiplicity = 1
  Electrons    = 60
  Nalpha       = 30
  Nbeta        = 30

  ==> Algorithm <==

  SCF Algorithm Type is DF.
  DIIS enabled.
  MOM disabled.
  Fractional occupation disabled.
  Guess Type is SAD.
  Energy threshold   = 1.00e-08
  Density threshold  = 1.00e-08
  Integral threshold = 0.00e+00

  ==> Primary Basis <==

  Basis Set: 6-31G(D)
    Blend: 6-31G(D)
    Number of shells: 70
    Number of basis function: 133
    Number of Cartesian functions: 133
    Spherical Harmonics?: false
    Max angular momentum: 2

   => Loading Basis Set <=

    Name: (6-31G(D) AUX)
    Role: JKFIT
    Keyword: DF_BASIS_SCF
    atoms 1, 4, 7, 10, 16                     entry C          line   121 file /usr/local/hpc1/software_molmod/psi4/psi4conda/share/psi4/basis/cc-pvdz-jkfit.gbs 
    atoms 2-3, 5-6, 8-9, 11-13, 15, 17-19, 21 entry H          line    51 file /usr/local/hpc1/software_molmod/psi4/psi4conda/share/psi4/basis/cc-pvdz-jkfit.gbs 
    atoms 14, 20                              entry O          line   221 file /usr/local/hpc1/software_molmod/psi4/psi4conda/share/psi4/basis/cc-pvdz-jkfit.gbs 

  ==> Pre-Iterations <==

   -------------------------------------------------------
    Irrep   Nso     Nmo     Nalpha   Nbeta   Ndocc  Nsocc
   -------------------------------------------------------
     A        133     133       0       0       0       0
   -------------------------------------------------------
    Total     133     133      30      30      30       0
   -------------------------------------------------------

  ==> Integral Setup <==

  ==> DiskDFJK: Density-Fitted J/K Matrices <==

    J tasked:                  Yes
    K tasked:                  Yes
    wK tasked:                  No
    OpenMP threads:             16
    Integrals threads:          16
    Memory (MB):             71525
    Algorithm:                Core
    Integral Cache:           NONE
    Schwarz Cutoff:          1E-12
    Fitting Condition:       1E-12

   => Auxiliary Basis Set <=

  Basis Set: (6-31G(D) AUX)
    Blend: CC-PVDZ-JKFIT
    Number of shells: 294
    Number of basis function: 917
    Number of Cartesian functions: 917
    Spherical Harmonics?: false
    Max angular momentum: 3

  Minimum eigenvalue in the overlap matrix is 3.5701229789E-03.
  Using Symmetric Orthogonalization.

  SCF Guess: Superposition of Atomic Densities via on-the-fly atomic UHF.

  ==> Iterations <==

                           Total Energy        Delta E     RMS |[F,P]|

   @DF-RHF iter   0:  -349.48710071985323   -3.49487e+02   1.05843e-01 
   @DF-RHF iter   1:  -346.99758023218033    2.48952e+00   1.57831e-02 
   @DF-RHF iter   2:  -347.15914456093174   -1.61564e-01   7.19468e-03 DIIS
   @DF-RHF iter   3:  -347.18537635976725   -2.62318e-02   1.51806e-03 DIIS
   @DF-RHF iter   4:  -347.18957507557627   -4.19872e-03   4.03412e-04 DIIS
   @DF-RHF iter   5:  -347.18977609685129   -2.01021e-04   1.28667e-04 DIIS
   @DF-RHF iter   6:  -347.18979523399503   -1.91371e-05   3.81868e-05 DIIS
   @DF-RHF iter   7:  -347.18979691872477   -1.68473e-06   8.21369e-06 DIIS
   @DF-RHF iter   8:  -347.18979703509700   -1.16372e-07   2.57253e-06 DIIS
   @DF-RHF iter   9:  -347.18979704237699   -7.27999e-09   6.79411e-07 DIIS
   @DF-RHF iter  10:  -347.18979704324249   -8.65498e-10   2.20555e-07 DIIS
   @DF-RHF iter  11:  -347.18979704330536   -6.28688e-11   7.05017e-08 DIIS
   @DF-RHF iter  12:  -347.18979704331116   -5.79803e-12   2.43224e-08 DIIS
   @DF-RHF iter  13:  -347.18979704331230   -1.13687e-12   3.84948e-09 DIIS

  ==> Post-Iterations <==

    Orbital Energies [Eh]
    ---------------------

    Doubly Occupied:                                                      

       1A    -20.576671     2A    -20.526181     3A    -11.279734  
       4A    -11.248385     5A    -11.222905     6A    -11.217609  
       7A    -11.212154     8A     -1.379300     9A     -1.334307  
      10A     -1.076731    11A     -0.982516    12A     -0.906166  
      13A     -0.863981    14A     -0.803136    15A     -0.710050  
      16A     -0.679233    17A     -0.664194    18A     -0.611034  
      19A     -0.602466    20A     -0.600058    21A     -0.574403  
      22A     -0.569484    23A     -0.530154    24A     -0.521629  
      25A     -0.480144    26A     -0.478259    27A     -0.474096  
      28A     -0.469788    29A     -0.450776    30A     -0.418187  

    Virtual:                                                              

      31A      0.211202    32A      0.229844    33A      0.261361  
      34A      0.270762    35A      0.277019    36A      0.298074  
      37A      0.323208    38A      0.334215    39A      0.337029  
      40A      0.340223    41A      0.340905    42A      0.346176  
      43A      0.351413    44A      0.363816    45A      0.388929  
      46A      0.422611    47A      0.435331    48A      0.453566  
      49A      0.479932    50A      0.697934    51A      0.737959  
      52A      0.747861    53A      0.749162    54A      0.770618  
      55A      0.789004    56A      0.798268    57A      0.817439  
      58A      0.844981    59A      0.896588    60A      0.916944  
      61A      0.964810    62A      0.987342    63A      1.017172  
      64A      1.067595    65A      1.084789    66A      1.111655  
      67A      1.143372    68A      1.146898    69A      1.157504  
      70A      1.160886    71A      1.166615    72A      1.182833  
      73A      1.192308    74A      1.199676    75A      1.213075  
      76A      1.227103    77A      1.231822    78A      1.238483  
      79A      1.259937    80A      1.267801    81A      1.295129  
      82A      1.316154    83A      1.369287    84A      1.426245  
      85A      1.497503    86A      1.580926    87A      1.631116  
      88A      1.669536    89A      1.716861    90A      1.746342  
      91A      1.765901    92A      1.791768    93A      1.802781  
      94A      1.848230    95A      1.915706    96A      2.008262  
      97A      2.060300    98A      2.063381    99A      2.104256  
     100A      2.130234   101A      2.225642   102A      2.234808  
     103A      2.270239   104A      2.324583   105A      2.348600  
     106A      2.365027   107A      2.417097   108A      2.424426  
     109A      2.481445   110A      2.500337   111A      2.535021  
     112A      2.609911   113A      2.630890   114A      2.668690  
     115A      2.735541   116A      2.749565   117A      2.783100  
     118A      2.790588   119A      2.793903   120A      2.835494  
     121A      2.892208   122A      2.921858   123A      2.995243  
     124A      3.141311   125A      3.213311   126A      3.254383  
     127A      4.224987   128A      4.366578   129A      4.577927  
     130A      4.662032   131A      4.695024   132A      4.802271  
     133A      4.959794  

    Final Occupation by Irrep:
              A 
    DOCC [    30 ]

  Energy converged.

  @DF-RHF Final Energy:  -347.18979704331230

   => Energetics <=

    Nuclear Repulsion Energy =            318.7615936228537521
    One-Electron Energy =               -1104.9753170571805185
    Two-Electron Energy =                 439.0239263910144700
    Total Energy =                       -347.1897970433122964



Properties will be evaluated at   0.000000,   0.000000,   0.000000 [a0]

Properties computed using the SCF density matrix

  Nuclear Dipole Moment: [e a0]
     X:     3.7161      Y:    -3.8481      Z:     2.0543

  Electronic Dipole Moment: [e a0]
     X:    -3.0165      Y:     4.5216      Z:    -1.5537

  Dipole Moment: [e a0]
     X:     0.6996      Y:     0.6735      Z:     0.5006     Total:     1.0926

  Dipole Moment: [D]
     X:     1.7783      Y:     1.7119      Z:     1.2725     Total:     2.7771


*** tstop() called on wr86 at Thu Dec  6 16:29:57 2018
Module time:
	user time   =      25.76 seconds =       0.43 minutes
	system time =       0.56 seconds =       0.01 minutes
	total time  =          3 seconds =       0.05 minutes
Total time:
	user time   =     124.18 seconds =       2.07 minutes
	system time =       3.89 seconds =       0.06 minutes
	total time  =         11 seconds =       0.18 minutes

*** tstart() called on wr86
*** at Thu Dec  6 16:29:57 2018


         ------------------------------------------------------------
                                   SCF GRAD                          
                          Rob Parrish, Justin Turney,                
                       Andy Simmonett, and Alex Sokolov              
         ------------------------------------------------------------

  ==> Geometry <==

    Molecular point group: c1
    Full point group: C1

    Geometry (in Angstrom), charge = 0, multiplicity = 1:

       Center              X                  Y                   Z               Mass       
    ------------   -----------------  -----------------  -----------------  -----------------
         C            0.863327765118     1.372335084165     0.026965813574    12.000000000000
         H            1.129054185942     1.522967300776    -1.016368516976     1.007825032070
         H            1.534547620845     1.975015441795     0.633192583408     1.007825032070
         C            0.989315819037    -0.094743789752     0.396664359706    12.000000000000
         H            0.694834932275    -0.213737195377     1.436133481493     1.007825032070
         H            0.282010840331    -0.663108103528    -0.199699255264     1.007825032070
         C            2.405258885715    -0.634182871945     0.188220854085    12.000000000000
         H            2.695148998261    -0.501314041741    -0.851869948097     1.007825032070
         H            3.108805274563    -0.051795731318     0.779788035926     1.007825032070
         C            2.532077314554    -2.110510639246     0.561883952559    12.000000000000
         H            3.544000511614    -2.469365948617     0.402885782779     1.007825032070
         H            2.282970065611    -2.272531976020     1.606566962905     1.007825032070
         H            1.864306318544    -2.723252128873    -0.036193881646     1.007825032070
         O           -0.473789246228     1.773659933435     0.249736389029    15.994914619560
         H           -0.573999357725     2.690904430597     0.035463157582     1.007825032070
         C           -3.322104435852    -0.521466259385    -0.211367978694    12.000000000000
         H           -3.977143680372     0.259034048042     0.171440871625     1.007825032070
         H           -2.857950651325    -1.022752759099     0.635640836828     1.007825032070
         H           -3.930705191768    -1.243481054651    -0.740312329348     1.007825032070
         O           -2.378632919424    -0.022554099178    -1.110094956028    15.994914619560
         H           -1.817267817988     0.599641553635    -0.660891990593     1.007825032070

  Nuclear repulsion =  318.761593622853752

  ==> Basis Set <==

  Basis Set: 6-31G(D)
    Blend: 6-31G(D)
    Number of shells: 70
    Number of basis function: 133
    Number of Cartesian functions: 133
    Spherical Harmonics?: false
    Max angular momentum: 2

  ==> DFJKGrad: Density-Fitted SCF Gradients <==

    Gradient:                    1
    J tasked:                  Yes
    K tasked:                  Yes
    wK tasked:                  No
    OpenMP threads:             16
    Integrals threads:          16
    Memory (MB):             71525
    Schwarz Cutoff:          0E+00
    Fitting Condition:       1E-12

   => Auxiliary Basis Set <=

  Basis Set: (6-31G(D) AUX)
    Blend: CC-PVDZ-JKFIT
    Number of shells: 294
    Number of basis function: 917
    Number of Cartesian functions: 917
    Spherical Harmonics?: false
    Max angular momentum: 3


  -Total Gradient:
     Atom            X                  Y                   Z
    ------   -----------------  -----------------  -----------------
       1        0.000924962492     0.000072101349     0.000018217727
       2       -0.000112938297    -0.000017743890     0.000079927704
       3       -0.000234627118    -0.000144224318    -0.000145628490
       4       -0.000144656204     0.000007979828    -0.000005503494
       5        0.000000043466    -0.000016641990     0.000005160987
       6        0.000002670281    -0.000042718558     0.000011774226
       7       -0.000002994774     0.000057064194    -0.000015562864
       8        0.000000749564     0.000000244951     0.000000262770
       9       -0.000000448823     0.000000465016    -0.000000982550
      10       -0.000011553017     0.000001036092     0.000002407692
      11        0.000000067841     0.000003387623    -0.000000607415
      12        0.000000036092    -0.000000511235    -0.000000264031
      13        0.000000502269    -0.000000225705     0.000000381649
      14       -0.000410505983     0.000089794714     0.000048817686
      15       -0.000005086153    -0.000007247568     0.000003829123
      16       -0.000003106493    -0.000002572618     0.000003490023
      17        0.000000056663     0.000000009912    -0.000000474739
      18        0.000000071964     0.000000185140    -0.000000887491
      19        0.000000793874     0.000000729046    -0.000000018567
      20        0.000005233699     0.000005370675     0.000001078803
      21       -0.000009271339    -0.000006482661    -0.000005418747


*** tstop() called on wr86 at Thu Dec  6 16:29:58 2018
Module time:
	user time   =      22.44 seconds =       0.37 minutes
	system time =       0.69 seconds =       0.01 minutes
	total time  =          1 seconds =       0.02 minutes
Total time:
	user time   =     146.65 seconds =       2.44 minutes
	system time =       4.58 seconds =       0.08 minutes
	total time  =         12 seconds =       0.20 minutes

  //>>>>>>>>>>>>>>>>>>>>>>>>>>>>>>>>>>>//
  //   Loading displacement 3 of 115   //
  //<<<<<<<<<<<<<<<<<<<<<<<<<<<<<<<<<<<//
gradient() will perform analytic gradient computation.

*** tstart() called on wr86
*** at Thu Dec  6 16:29:58 2018

   => Loading Basis Set <=

    Name: 6-31G(D)
    Role: ORBITAL
    Keyword: BASIS
    atoms 1, 4, 7, 10, 16                     entry C          line   111 file /usr/local/hpc1/software_molmod/psi4/psi4conda/share/psi4/basis/6-31g_d_.gbs 
    atoms 2-3, 5-6, 8-9, 11-13, 15, 17-19, 21 entry H          line    44 file /usr/local/hpc1/software_molmod/psi4/psi4conda/share/psi4/basis/6-31g_d_.gbs 
    atoms 14, 20                              entry O          line   145 file /usr/local/hpc1/software_molmod/psi4/psi4conda/share/psi4/basis/6-31g_d_.gbs 


         ---------------------------------------------------------
                                   SCF
            by Justin Turney, Rob Parrish, Andy Simmonett
                             and Daniel Smith
                              RHF Reference
                       16 Threads,  95367 MiB Core
         ---------------------------------------------------------

  ==> Geometry <==

    Molecular point group: c1
    Full point group: C1

    Geometry (in Angstrom), charge = 0, multiplicity = 1:

       Center              X                  Y                   Z               Mass       
    ------------   -----------------  -----------------  -----------------  -----------------
         C            0.862623618218     1.371602848864     0.026957690714    12.000000000000
         H            1.129156276639     1.523045566787    -1.016377772046     1.007825032070
         H            1.534655672518     1.975098744601     0.633180482644     1.007825032070
         C            0.989406823557    -0.094657274817     0.396663451629    12.000000000000
         H            0.694926431575    -0.213643064420     1.436133585307     1.007825032070
         H            0.282096419504    -0.663018880987    -0.199696308982     1.007825032070
         C            2.405345241382    -0.634108842810     0.188220681443    12.000000000000
         H            2.695234970339    -0.501247594686    -0.851871196117     1.007825032070
         H            3.108897162111    -0.051724403603     0.779783943530     1.007825032070
         C            2.532152270235    -2.110435751187     0.561891041302    12.000000000000
         H            3.544072346213    -2.469300034258     0.402893262764     1.007825032070
         H            2.283045175859    -2.272449812110     1.606575216813     1.007825032070
         H            1.864375488068    -2.723174861126    -0.036182770293     1.007825032070
         O           -0.473683357417     1.773757524118     0.249728115129    15.994914619560
         H           -0.573886361037     2.691001750720     0.035450402165     1.007825032070
         C           -3.322017728416    -0.521347987657    -0.211360699333    12.000000000000
         H           -3.977050133145     0.259159538797     0.171445135388     1.007825032070
         H           -2.857866806299    -1.022633968011     0.635649992101     1.007825032070
         H           -3.930625056205    -1.243360532738    -0.740300559625     1.007825032070
         O           -2.378543441443    -0.022447975849    -1.110091511689    15.994914619560
         H           -1.817172685971     0.599745406493    -0.660892467496     1.007825032070

  Running in c1 symmetry.

  Rotational constants: A =      0.09593  B =      0.03167  C =      0.02532 [cm^-1]
  Rotational constants: A =   2875.90707  B =    949.55766  C =    759.12432 [MHz]
  Nuclear repulsion =  318.776830074528618

  Charge       = 0
  Multiplicity = 1
  Electrons    = 60
  Nalpha       = 30
  Nbeta        = 30

  ==> Algorithm <==

  SCF Algorithm Type is DF.
  DIIS enabled.
  MOM disabled.
  Fractional occupation disabled.
  Guess Type is SAD.
  Energy threshold   = 1.00e-08
  Density threshold  = 1.00e-08
  Integral threshold = 0.00e+00

  ==> Primary Basis <==

  Basis Set: 6-31G(D)
    Blend: 6-31G(D)
    Number of shells: 70
    Number of basis function: 133
    Number of Cartesian functions: 133
    Spherical Harmonics?: false
    Max angular momentum: 2

   => Loading Basis Set <=

    Name: (6-31G(D) AUX)
    Role: JKFIT
    Keyword: DF_BASIS_SCF
    atoms 1, 4, 7, 10, 16                     entry C          line   121 file /usr/local/hpc1/software_molmod/psi4/psi4conda/share/psi4/basis/cc-pvdz-jkfit.gbs 
    atoms 2-3, 5-6, 8-9, 11-13, 15, 17-19, 21 entry H          line    51 file /usr/local/hpc1/software_molmod/psi4/psi4conda/share/psi4/basis/cc-pvdz-jkfit.gbs 
    atoms 14, 20                              entry O          line   221 file /usr/local/hpc1/software_molmod/psi4/psi4conda/share/psi4/basis/cc-pvdz-jkfit.gbs 

  ==> Pre-Iterations <==

   -------------------------------------------------------
    Irrep   Nso     Nmo     Nalpha   Nbeta   Ndocc  Nsocc
   -------------------------------------------------------
     A        133     133       0       0       0       0
   -------------------------------------------------------
    Total     133     133      30      30      30       0
   -------------------------------------------------------

  ==> Integral Setup <==

  ==> DiskDFJK: Density-Fitted J/K Matrices <==

    J tasked:                  Yes
    K tasked:                  Yes
    wK tasked:                  No
    OpenMP threads:             16
    Integrals threads:          16
    Memory (MB):             71525
    Algorithm:                Core
    Integral Cache:           NONE
    Schwarz Cutoff:          1E-12
    Fitting Condition:       1E-12

   => Auxiliary Basis Set <=

  Basis Set: (6-31G(D) AUX)
    Blend: CC-PVDZ-JKFIT
    Number of shells: 294
    Number of basis function: 917
    Number of Cartesian functions: 917
    Spherical Harmonics?: false
    Max angular momentum: 3

  Minimum eigenvalue in the overlap matrix is 3.5672959828E-03.
  Using Symmetric Orthogonalization.

  SCF Guess: Superposition of Atomic Densities via on-the-fly atomic UHF.

  ==> Iterations <==

                           Total Energy        Delta E     RMS |[F,P]|

   @DF-RHF iter   0:  -349.77274279626153   -3.49773e+02   1.44659e-01 
   @DF-RHF iter   1:  -347.03333974638969    2.73940e+00   1.03128e-02 
   @DF-RHF iter   2:  -347.17111787699224   -1.37778e-01   4.87072e-03 DIIS
   @DF-RHF iter   3:  -347.18664252049064   -1.55246e-02   1.87962e-03 DIIS
   @DF-RHF iter   4:  -347.18960794258373   -2.96542e-03   4.19500e-04 DIIS
   @DF-RHF iter   5:  -347.18977414230312   -1.66200e-04   1.29622e-04 DIIS
   @DF-RHF iter   6:  -347.18979530407188   -2.11618e-05   3.74072e-05 DIIS
   @DF-RHF iter   7:  -347.18979687530202   -1.57123e-06   9.42650e-06 DIIS
   @DF-RHF iter   8:  -347.18979701943425   -1.44132e-07   2.82969e-06 DIIS
   @DF-RHF iter   9:  -347.18979702907546   -9.64121e-09   7.64765e-07 DIIS
   @DF-RHF iter  10:  -347.18979702993465   -8.59188e-10   1.70941e-07 DIIS
   @DF-RHF iter  11:  -347.18979702997376   -3.91083e-11   4.62837e-08 DIIS
   @DF-RHF iter  12:  -347.18979702997700   -3.24007e-12   2.51148e-08 DIIS
   @DF-RHF iter  13:  -347.18979702997802   -1.02318e-12   3.35294e-09 DIIS

  ==> Post-Iterations <==

    Orbital Energies [Eh]
    ---------------------

    Doubly Occupied:                                                      

       1A    -20.576710     2A    -20.526201     3A    -11.279790  
       4A    -11.248399     5A    -11.222928     6A    -11.217583  
       7A    -11.212166     8A     -1.379500     9A     -1.334328  
      10A     -1.076798    11A     -0.982579    12A     -0.906181  
      13A     -0.863930    14A     -0.803123    15A     -0.710212  
      16A     -0.679252    17A     -0.664155    18A     -0.610996  
      19A     -0.602639    20A     -0.600079    21A     -0.574416  
      22A     -0.569507    23A     -0.530182    24A     -0.521584  
      25A     -0.480134    26A     -0.478286    27A     -0.474124  
      28A     -0.469899    29A     -0.450562    30A     -0.418203  

    Virtual:                                                              

      31A      0.211163    32A      0.229870    33A      0.261324  
      34A      0.270759    35A      0.276975    36A      0.298063  
      37A      0.323222    38A      0.334214    39A      0.336992  
      40A      0.340209    41A      0.340907    42A      0.346102  
      43A      0.351398    44A      0.363893    45A      0.388933  
      46A      0.422767    47A      0.435440    48A      0.453618  
      49A      0.480011    50A      0.697948    51A      0.738062  
      52A      0.747849    53A      0.749134    54A      0.770679  
      55A      0.789010    56A      0.798260    57A      0.817438  
      58A      0.845175    59A      0.896650    60A      0.917118  
      61A      0.964852    62A      0.987266    63A      1.017234  
      64A      1.067553    65A      1.084732    66A      1.111309  
      67A      1.143349    68A      1.146873    69A      1.157433  
      70A      1.160837    71A      1.166552    72A      1.182806  
      73A      1.192270    74A      1.199441    75A      1.213034  
      76A      1.227098    77A      1.231779    78A      1.238467  
      79A      1.259888    80A      1.267750    81A      1.295060  
      82A      1.316133    83A      1.369289    84A      1.426180  
      85A      1.497542    86A      1.580972    87A      1.631086  
      88A      1.669532    89A      1.717109    90A      1.746340  
      91A      1.765852    92A      1.791768    93A      1.802754  
      94A      1.848301    95A      1.915644    96A      2.008110  
      97A      2.060279    98A      2.063340    99A      2.104220  
     100A      2.130304   101A      2.225998   102A      2.234835  
     103A      2.270086   104A      2.324823   105A      2.348441  
     106A      2.364705   107A      2.417352   108A      2.424577  
     109A      2.481438   110A      2.500324   111A      2.535306  
     112A      2.609797   113A      2.630883   114A      2.668829  
     115A      2.735529   116A      2.749528   117A      2.783106  
     118A      2.790515   119A      2.794217   120A      2.835902  
     121A      2.892217   122A      2.922025   123A      2.995744  
     124A      3.141865   125A      3.213301   126A      3.254531  
     127A      4.225144   128A      4.366688   129A      4.577962  
     130A      4.662019   131A      4.694991   132A      4.802190  
     133A      4.959811  

    Final Occupation by Irrep:
              A 
    DOCC [    30 ]

  Energy converged.

  @DF-RHF Final Energy:  -347.18979702997802

   => Energetics <=

    Nuclear Repulsion Energy =            318.7768300745286183
    One-Electron Energy =               -1105.0043633029724788
    Two-Electron Energy =                 439.0377361984658933
    Total Energy =                       -347.1897970299780241



Properties will be evaluated at   0.000000,   0.000000,   0.000000 [a0]

Properties computed using the SCF density matrix

  Nuclear Dipole Moment: [e a0]
     X:     3.7173      Y:    -3.8469      Z:     2.0544

  Electronic Dipole Moment: [e a0]
     X:    -3.0187      Y:     4.5199      Z:    -1.5538

  Dipole Moment: [e a0]
     X:     0.6986      Y:     0.6730      Z:     0.5006     Total:     1.0916

  Dipole Moment: [D]
     X:     1.7757      Y:     1.7105      Z:     1.2724     Total:     2.7745


*** tstop() called on wr86 at Thu Dec  6 16:30:01 2018
Module time:
	user time   =      25.65 seconds =       0.43 minutes
	system time =       0.53 seconds =       0.01 minutes
	total time  =          3 seconds =       0.05 minutes
Total time:
	user time   =     172.44 seconds =       2.87 minutes
	system time =       5.12 seconds =       0.09 minutes
	total time  =         15 seconds =       0.25 minutes

*** tstart() called on wr86
*** at Thu Dec  6 16:30:01 2018


         ------------------------------------------------------------
                                   SCF GRAD                          
                          Rob Parrish, Justin Turney,                
                       Andy Simmonett, and Alex Sokolov              
         ------------------------------------------------------------

  ==> Geometry <==

    Molecular point group: c1
    Full point group: C1

    Geometry (in Angstrom), charge = 0, multiplicity = 1:

       Center              X                  Y                   Z               Mass       
    ------------   -----------------  -----------------  -----------------  -----------------
         C            0.862623618218     1.371602848864     0.026957690714    12.000000000000
         H            1.129156276639     1.523045566787    -1.016377772046     1.007825032070
         H            1.534655672518     1.975098744601     0.633180482644     1.007825032070
         C            0.989406823557    -0.094657274817     0.396663451629    12.000000000000
         H            0.694926431575    -0.213643064420     1.436133585307     1.007825032070
         H            0.282096419504    -0.663018880987    -0.199696308982     1.007825032070
         C            2.405345241382    -0.634108842810     0.188220681443    12.000000000000
         H            2.695234970339    -0.501247594686    -0.851871196117     1.007825032070
         H            3.108897162111    -0.051724403603     0.779783943530     1.007825032070
         C            2.532152270235    -2.110435751187     0.561891041302    12.000000000000
         H            3.544072346213    -2.469300034258     0.402893262764     1.007825032070
         H            2.283045175859    -2.272449812110     1.606575216813     1.007825032070
         H            1.864375488068    -2.723174861126    -0.036182770293     1.007825032070
         O           -0.473683357417     1.773757524118     0.249728115129    15.994914619560
         H           -0.573886361037     2.691001750720     0.035450402165     1.007825032070
         C           -3.322017728416    -0.521347987657    -0.211360699333    12.000000000000
         H           -3.977050133145     0.259159538797     0.171445135388     1.007825032070
         H           -2.857866806299    -1.022633968011     0.635649992101     1.007825032070
         H           -3.930625056205    -1.243360532738    -0.740300559625     1.007825032070
         O           -2.378543441443    -0.022447975849    -1.110091511689    15.994914619560
         H           -1.817172685971     0.599745406493    -0.660892467496     1.007825032070

  Nuclear repulsion =  318.776830074528618

  ==> Basis Set <==

  Basis Set: 6-31G(D)
    Blend: 6-31G(D)
    Number of shells: 70
    Number of basis function: 133
    Number of Cartesian functions: 133
    Spherical Harmonics?: false
    Max angular momentum: 2

  ==> DFJKGrad: Density-Fitted SCF Gradients <==

    Gradient:                    1
    J tasked:                  Yes
    K tasked:                  Yes
    wK tasked:                  No
    OpenMP threads:             16
    Integrals threads:          16
    Memory (MB):             71525
    Schwarz Cutoff:          0E+00
    Fitting Condition:       1E-12

   => Auxiliary Basis Set <=

  Basis Set: (6-31G(D) AUX)
    Blend: CC-PVDZ-JKFIT
    Number of shells: 294
    Number of basis function: 917
    Number of Cartesian functions: 917
    Spherical Harmonics?: false
    Max angular momentum: 3


  -Total Gradient:
     Atom            X                  Y                   Z
    ------   -----------------  -----------------  -----------------
       1       -0.000044669374    -0.000957344245    -0.000011198086
       2        0.000011337724     0.000113139554    -0.000055468026
       3        0.000128898384     0.000233340785     0.000134736972
       4        0.000020847052     0.000355723291    -0.000061030670
       5       -0.000001122262     0.000008179250     0.000000159052
       6       -0.000003552858     0.000034362244    -0.000010549674
       7       -0.000012182078     0.000013269160    -0.000000592874
       8        0.000001709479    -0.000000624315    -0.000001104874
       9        0.000003256490    -0.000001169926     0.000000752430
      10        0.000002314794    -0.000000190230     0.000000010846
      11        0.000000599129    -0.000001364980     0.000000053903
      12       -0.000000364065     0.000000083253     0.000000104051
      13       -0.000000337758    -0.000000170167    -0.000000332446
      14       -0.000028788811     0.000192143374    -0.000009108876
      15       -0.000077174472     0.000013667082     0.000015480539
      16       -0.000001046890    -0.000001407297     0.000001558252
      17       -0.000000243207    -0.000000004530    -0.000000109888
      18        0.000000015475     0.000000220173    -0.000000558520
      19        0.000000201503     0.000000316381     0.000000010605
      20        0.000000900663     0.000003581826     0.000001490804
      21       -0.000000598915    -0.000005750686    -0.000004303521


*** tstop() called on wr86 at Thu Dec  6 16:30:02 2018
Module time:
	user time   =      22.58 seconds =       0.38 minutes
	system time =       0.75 seconds =       0.01 minutes
	total time  =          1 seconds =       0.02 minutes
Total time:
	user time   =     195.04 seconds =       3.25 minutes
	system time =       5.87 seconds =       0.10 minutes
	total time  =         16 seconds =       0.27 minutes

  //>>>>>>>>>>>>>>>>>>>>>>>>>>>>>>>>>>>//
  //   Loading displacement 4 of 115   //
  //<<<<<<<<<<<<<<<<<<<<<<<<<<<<<<<<<<<//
gradient() will perform analytic gradient computation.

*** tstart() called on wr86
*** at Thu Dec  6 16:30:02 2018

   => Loading Basis Set <=

    Name: 6-31G(D)
    Role: ORBITAL
    Keyword: BASIS
    atoms 1, 4, 7, 10, 16                     entry C          line   111 file /usr/local/hpc1/software_molmod/psi4/psi4conda/share/psi4/basis/6-31g_d_.gbs 
    atoms 2-3, 5-6, 8-9, 11-13, 15, 17-19, 21 entry H          line    44 file /usr/local/hpc1/software_molmod/psi4/psi4conda/share/psi4/basis/6-31g_d_.gbs 
    atoms 14, 20                              entry O          line   145 file /usr/local/hpc1/software_molmod/psi4/psi4conda/share/psi4/basis/6-31g_d_.gbs 


         ---------------------------------------------------------
                                   SCF
            by Justin Turney, Rob Parrish, Andy Simmonett
                             and Daniel Smith
                              RHF Reference
                       16 Threads,  95367 MiB Core
         ---------------------------------------------------------

  ==> Geometry <==

    Molecular point group: c1
    Full point group: C1

    Geometry (in Angstrom), charge = 0, multiplicity = 1:

       Center              X                  Y                   Z               Mass       
    ------------   -----------------  -----------------  -----------------  -----------------
         C            0.862623618218     1.373029391725     0.026942668066    12.000000000000
         H            1.129202492573     1.522818620797    -1.016394793036     1.007825032070
         H            1.534718096140     1.974876217947     0.633158266240     1.007825032070
         C            0.989409918721    -0.094866584692     0.396662355635    12.000000000000
         H            0.694928257995    -0.213833951394     1.436134238542     1.007825032070
         H            0.282082142283    -0.663213846141    -0.199690471312     1.007825032070
         C            2.405332574250    -0.634360425987     0.188221921723    12.000000000000
         H            2.695223965199    -0.501517476258    -0.851871829887     1.007825032070
         H            3.108902256310    -0.051990271021     0.779778122209     1.007825032070
         C            2.532098387891    -2.110687326263     0.561906297655    12.000000000000
         H            3.544007936789    -2.469581917536     0.402909930982     1.007825032070
         H            2.282988811971    -2.272684203916     1.606592546145     1.007825032070
         H            1.864302968088    -2.723413232060    -0.036160231606     1.007825032070
         O           -0.473627437441     1.773588391596     0.249711929596    15.994914619560
         H           -0.573804797601     2.690833395028     0.035425551977     1.007825032070
         C           -3.322027999888    -0.521440592834    -0.211348902069    12.000000000000
         H           -3.977037434255     0.259089258429     0.171450718322     1.007825032070
         H           -2.857889607883    -1.022731580453     0.635665692141     1.007825032070
         H           -3.930656931605    -1.243440947618    -0.740280543839     1.007825032070
         O           -2.378541356405    -0.022576095669    -1.110086456685    15.994914619560
         H           -1.817151997243     0.599605668485    -0.660894569840     1.007825032070

  Running in c1 symmetry.

  Rotational constants: A =      0.09590  B =      0.03167  C =      0.02532 [cm^-1]
  Rotational constants: A =   2874.95748  B =    949.56663  C =    759.06398 [MHz]
  Nuclear repulsion =  318.762746928283264

  Charge       = 0
  Multiplicity = 1
  Electrons    = 60
  Nalpha       = 30
  Nbeta        = 30

  ==> Algorithm <==

  SCF Algorithm Type is DF.
  DIIS enabled.
  MOM disabled.
  Fractional occupation disabled.
  Guess Type is SAD.
  Energy threshold   = 1.00e-08
  Density threshold  = 1.00e-08
  Integral threshold = 0.00e+00

  ==> Primary Basis <==

  Basis Set: 6-31G(D)
    Blend: 6-31G(D)
    Number of shells: 70
    Number of basis function: 133
    Number of Cartesian functions: 133
    Spherical Harmonics?: false
    Max angular momentum: 2

   => Loading Basis Set <=

    Name: (6-31G(D) AUX)
    Role: JKFIT
    Keyword: DF_BASIS_SCF
    atoms 1, 4, 7, 10, 16                     entry C          line   121 file /usr/local/hpc1/software_molmod/psi4/psi4conda/share/psi4/basis/cc-pvdz-jkfit.gbs 
    atoms 2-3, 5-6, 8-9, 11-13, 15, 17-19, 21 entry H          line    51 file /usr/local/hpc1/software_molmod/psi4/psi4conda/share/psi4/basis/cc-pvdz-jkfit.gbs 
    atoms 14, 20                              entry O          line   221 file /usr/local/hpc1/software_molmod/psi4/psi4conda/share/psi4/basis/cc-pvdz-jkfit.gbs 

  ==> Pre-Iterations <==

   -------------------------------------------------------
    Irrep   Nso     Nmo     Nalpha   Nbeta   Ndocc  Nsocc
   -------------------------------------------------------
     A        133     133       0       0       0       0
   -------------------------------------------------------
    Total     133     133      30      30      30       0
   -------------------------------------------------------

  ==> Integral Setup <==

  ==> DiskDFJK: Density-Fitted J/K Matrices <==

    J tasked:                  Yes
    K tasked:                  Yes
    wK tasked:                  No
    OpenMP threads:             16
    Integrals threads:          16
    Memory (MB):             71525
    Algorithm:                Core
    Integral Cache:           NONE
    Schwarz Cutoff:          1E-12
    Fitting Condition:       1E-12

   => Auxiliary Basis Set <=

  Basis Set: (6-31G(D) AUX)
    Blend: CC-PVDZ-JKFIT
    Number of shells: 294
    Number of basis function: 917
    Number of Cartesian functions: 917
    Spherical Harmonics?: false
    Max angular momentum: 3

  Minimum eigenvalue in the overlap matrix is 3.5730904980E-03.
  Using Symmetric Orthogonalization.

  SCF Guess: Superposition of Atomic Densities via on-the-fly atomic UHF.

  ==> Iterations <==

                           Total Energy        Delta E     RMS |[F,P]|

   @DF-RHF iter   0:  -349.40928458018385   -3.49409e+02   1.38741e-01 
   @DF-RHF iter   1:  -346.96154789004390    2.44774e+00   1.65327e-02 
[...]
  Force const [mDyne/A]         1.6932              1.7840              1.7198        
  Turning point v=0 [a0]        0.2631              0.2567              0.2621        
  RMS dev v=0 [a0 u^1/2]        0.1909              0.1906              0.1901        
  Char temp [K]               2377.8191           2384.4716           2397.0638       
  ----------------------------------------------------------------------------------
      1   C                0.00  0.00 -0.00    0.00 -0.03  0.01    0.00  0.01 -0.00   
      2   H               -0.01 -0.00 -0.00    0.09  0.14  0.05   -0.02 -0.03 -0.01   
      3   H               -0.00 -0.00  0.01    0.04  0.09 -0.15   -0.01 -0.02  0.03   
      4   C                0.00 -0.00 -0.00    0.02  0.05 -0.02   -0.00 -0.00  0.00   
      5   H               -0.03 -0.01 -0.01   -0.27 -0.26 -0.13    0.01  0.02  0.01   
      6   H               -0.02 -0.00  0.03   -0.16 -0.14  0.35    0.00  0.01 -0.02   
      7   C               -0.01 -0.00  0.00    0.05  0.02 -0.02   -0.00  0.00  0.00   
      8   H                0.07  0.04  0.03   -0.31 -0.21 -0.14    0.01  0.00  0.00   
      9   H                0.04  0.01 -0.07   -0.19 -0.07  0.34    0.00 -0.00 -0.00   
     10   C               -0.01  0.00  0.00    0.03 -0.00 -0.01   -0.00  0.00  0.00   
     11   H               -0.02 -0.05  0.01    0.07  0.17 -0.06   -0.00 -0.01  0.00   
     12   H                0.06  0.04  0.02   -0.28 -0.14 -0.10    0.01  0.01  0.00   
     13   H                0.05  0.01 -0.06   -0.19 -0.04  0.27    0.01  0.00 -0.01   
     14   O               -0.00  0.00  0.00   -0.00  0.00 -0.00    0.00 -0.00 -0.00   
     15   H                0.01  0.00 -0.00   -0.04  0.00  0.01    0.01  0.00 -0.00   
     16   C                0.04 -0.04  0.01    0.00 -0.01  0.00    0.01 -0.01 -0.06   
     17   H               -0.37 -0.29 -0.11   -0.01 -0.02  0.01    0.20 -0.16  0.63   
     18   H                0.26  0.37  0.10    0.04  0.08  0.03   -0.33  0.42  0.42   
     19   H               -0.46  0.52 -0.18   -0.02  0.07 -0.07    0.13  0.02 -0.20   
     20   O                0.00 -0.01  0.00    0.00 -0.00 -0.00   -0.00 -0.01 -0.02   
     21   H                0.00 -0.01  0.01   -0.02 -0.01  0.03   -0.06 -0.02  0.08   

  Vibration                       49                  50                  51          
  Freq [cm^-1]                1680.8546           3175.5616           3184.1054       
  Irrep                           A                   A                   A           
  Reduced mass [u]              1.0924              1.0371              1.0580        
  Force const [mDyne/A]         1.8184              6.1619              6.3202        
  Turning point v=0 [a0]        0.2561              0.1912              0.1890        
  RMS dev v=0 [a0 u^1/2]        0.1892              0.1377              0.1375        
  Char temp [K]               2418.3719           4568.9191           4581.2117       
  ----------------------------------------------------------------------------------
      1   C                0.07  0.04 -0.03    0.00  0.00  0.00   -0.03 -0.03  0.01   
      2   H               -0.53 -0.37 -0.21   -0.00 -0.00  0.01    0.09  0.05 -0.42   
      3   H               -0.33 -0.16  0.57   -0.01 -0.01 -0.01    0.28  0.25  0.27   
      4   C                0.01  0.01 -0.01   -0.00 -0.00  0.00   -0.00 -0.00  0.00   
      5   H               -0.10 -0.10 -0.05    0.00  0.00 -0.01    0.01  0.00 -0.02   
      6   H               -0.05 -0.05  0.13    0.00  0.00  0.00    0.02  0.01  0.01   
      7   C                0.01  0.01 -0.00   -0.00 -0.00  0.00    0.04  0.03 -0.01   
      8   H               -0.08 -0.05 -0.04    0.00  0.00 -0.00   -0.12 -0.05  0.48   
      9   H               -0.05 -0.02  0.09    0.00  0.00  0.00   -0.36 -0.30 -0.32   
     10   C                0.00 -0.00 -0.00    0.00 -0.00  0.00   -0.01  0.00 -0.00   
     11   H                0.01  0.02 -0.01   -0.00  0.00  0.00    0.11 -0.03 -0.02   
     12   H               -0.02 -0.01 -0.01    0.00  0.00 -0.00   -0.01 -0.00  0.04   
     13   H               -0.02 -0.00  0.02    0.00  0.00  0.00   -0.02 -0.02 -0.02   
     14   O                0.01  0.00 -0.00    0.00  0.00  0.00   -0.00  0.00  0.00   
     15   H                0.01  0.00 -0.00    0.00  0.00 -0.00   -0.00 -0.00  0.00   
     16   C               -0.00 -0.00  0.00    0.02 -0.00 -0.05    0.00 -0.00 -0.00   
     17   H               -0.00  0.01 -0.02   -0.42  0.52  0.23   -0.01  0.01  0.01   
     18   H                0.02 -0.01 -0.01    0.29 -0.30  0.49    0.01 -0.01  0.01   
     19   H               -0.00  0.00 -0.00   -0.15 -0.19 -0.14   -0.00 -0.00 -0.00   
     20   O               -0.00  0.00  0.00    0.00  0.00 -0.00    0.00  0.00  0.00   
     21   H                0.01  0.00 -0.01    0.01  0.01  0.00   -0.00 -0.00 -0.00   

  Vibration                       52                  53                  54          
  Freq [cm^-1]                3192.8750           3200.7147           3208.8065       
  Irrep                           A                   A                   A           
  Reduced mass [u]              1.0572              1.0402              1.0802        
  Force const [mDyne/A]         6.3497              6.2787              6.5530        
  Turning point v=0 [a0]        0.1889              0.1902              0.1864        
  RMS dev v=0 [a0 u^1/2]        0.1373              0.1371              0.1370        
  Char temp [K]               4593.8292           4605.1088           4616.7510       
  ----------------------------------------------------------------------------------
      1   C                0.03  0.03 -0.02   -0.01 -0.01  0.00    0.01  0.00  0.01   
      2   H               -0.11 -0.06  0.51    0.02  0.01 -0.08    0.02  0.01 -0.08   
      3   H               -0.32 -0.29 -0.31    0.08  0.07  0.07   -0.09 -0.08 -0.08   
      4   C               -0.01 -0.01  0.00   -0.01 -0.01  0.01    0.03  0.02 -0.05   
      5   H                0.03  0.01 -0.12    0.04  0.02 -0.17   -0.19 -0.08  0.70   
      6   H                0.07  0.06  0.06    0.06  0.05  0.05   -0.15 -0.12 -0.14   
      7   C                0.03  0.02 -0.01   -0.01 -0.01  0.00    0.01  0.01  0.05   
      8   H               -0.09 -0.04  0.36    0.04  0.02 -0.14    0.11  0.05 -0.38   
      9   H               -0.28 -0.23 -0.25    0.13  0.11  0.12   -0.26 -0.21 -0.21   
     10   C               -0.01  0.01 -0.00    0.00  0.05 -0.02   -0.00  0.01 -0.01   
     11   H                0.18 -0.06 -0.03    0.44 -0.14 -0.07    0.11 -0.04 -0.02   
     12   H               -0.03 -0.02  0.13   -0.13 -0.07  0.56   -0.05 -0.03  0.20   
     13   H               -0.07 -0.06 -0.07   -0.35 -0.30 -0.31   -0.02 -0.02 -0.02   
     14   O                0.00 -0.00  0.00   -0.00  0.00 -0.00   -0.00  0.00 -0.00   
     15   H                0.01  0.00 -0.00   -0.00  0.00  0.00   -0.00  0.00  0.00   
     16   C                0.00 -0.00  0.00   -0.00  0.00 -0.00    0.00 -0.00  0.00   
     17   H                0.00 -0.00 -0.00    0.00 -0.00 -0.00   -0.03  0.03  0.02   
     18   H               -0.01  0.01 -0.01    0.00 -0.00  0.01   -0.02  0.02 -0.03   
     19   H                0.00  0.00  0.00    0.00  0.00  0.00   -0.00 -0.00 -0.00   
     20   O               -0.00 -0.00 -0.00    0.00  0.00  0.00    0.00  0.00  0.00   
     21   H                0.00  0.00  0.00   -0.00 -0.00 -0.00   -0.00  0.00 -0.00   

  Vibration                       55                  56                  57          
  Freq [cm^-1]                3213.3555           3216.8178           3220.0378       
  Irrep                           A                   A                   A           
  Reduced mass [u]              1.0940              1.1055              1.0968        
  Force const [mDyne/A]         6.6553              6.7400              6.7003        
  Turning point v=0 [a0]        0.1851              0.1840              0.1846        
  RMS dev v=0 [a0 u^1/2]        0.1369              0.1368              0.1367        
  Char temp [K]               4623.2960           4628.2775           4632.9104       
  ----------------------------------------------------------------------------------
      1   C                0.01  0.01  0.04    0.00  0.00  0.01   -0.01 -0.02 -0.07   
      2   H                0.06  0.04 -0.26    0.02  0.01 -0.09   -0.14 -0.09  0.58   
      3   H               -0.20 -0.18 -0.18   -0.06 -0.06 -0.06    0.32  0.30  0.30   
      4   C                0.02  0.02 -0.02    0.00 -0.00 -0.01    0.03  0.02  0.01   
      5   H               -0.10 -0.03  0.35   -0.02 -0.01  0.06   -0.03 -0.01  0.14   
      6   H               -0.20 -0.16 -0.18    0.01  0.01  0.01   -0.34 -0.27 -0.29   
      7   C               -0.01 -0.01 -0.07    0.00  0.00 -0.00   -0.00 -0.00 -0.02   
      8   H               -0.15 -0.07  0.55   -0.00 -0.00  0.02   -0.04 -0.02  0.15   
      9   H                0.28  0.23  0.23    0.00  0.00  0.00    0.06  0.04  0.04   
     10   C                0.00  0.01  0.02   -0.00  0.00  0.00   -0.00  0.00  0.00   
     11   H                0.09 -0.03 -0.01    0.01 -0.00 -0.00    0.05 -0.02 -0.01   
     12   H                0.02  0.01 -0.08    0.00  0.00 -0.00   -0.00 -0.00  0.00   
     13   H               -0.13 -0.11 -0.11   -0.00 -0.00 -0.00   -0.03 -0.03 -0.03   
     14   O               -0.00  0.00 -0.00    0.00 -0.00 -0.00   -0.00  0.00  0.00   
     15   H               -0.00  0.00 -0.00   -0.00 -0.00  0.00   -0.00  0.00 -0.00   
     16   C                0.01 -0.01  0.00   -0.06  0.07 -0.03   -0.01  0.01 -0.00   
     17   H               -0.03  0.04  0.02    0.39 -0.49 -0.24    0.04 -0.05 -0.02   
     18   H               -0.03  0.03 -0.05    0.32 -0.32  0.56    0.04 -0.04  0.07   
     19   H                0.00 -0.00  0.00   -0.03  0.00 -0.02   -0.01 -0.00 -0.00   
     20   O                0.00  0.00 -0.00    0.00 -0.00  0.00    0.00 -0.00  0.00   
     21   H               -0.00  0.00  0.00    0.00  0.00  0.00    0.00  0.00 -0.00   

  Vibration                       58                  59                  60          
  Freq [cm^-1]                3256.8039           3265.2818           3269.1210       
  Irrep                           A                   A                   A           
  Reduced mass [u]              1.1051              1.1030              1.1046        
  Force const [mDyne/A]         6.9060              6.9288              6.9553        
  Turning point v=0 [a0]        0.1829              0.1828              0.1826        
  RMS dev v=0 [a0 u^1/2]        0.1360              0.1358              0.1357        
  Char temp [K]               4685.8085           4698.0064           4703.5301       
  ----------------------------------------------------------------------------------
      1   C                0.01  0.01  0.02    0.00  0.00  0.01   -0.00 -0.01 -0.02   
      2   H                0.04  0.03 -0.18    0.01  0.01 -0.06   -0.03 -0.02  0.13   
      3   H               -0.11 -0.11 -0.11   -0.03 -0.03 -0.03    0.08  0.08  0.08   
      4   C                0.02  0.02  0.06    0.01  0.00  0.02   -0.02 -0.02 -0.05   
      5   H                0.10  0.04 -0.34    0.04  0.01 -0.14   -0.09 -0.04  0.31   
      6   H               -0.37 -0.30 -0.31   -0.09 -0.08 -0.08    0.30  0.24  0.25   
      7   C                0.00  0.00  0.00   -0.00 -0.00  0.01   -0.01 -0.01 -0.03   
      8   H                0.00 -0.00 -0.00    0.04  0.02 -0.14   -0.06 -0.03  0.21   
      9   H               -0.02 -0.01 -0.01    0.00  0.00  0.00    0.16  0.13  0.13   
     10   C               -0.01 -0.02 -0.06   -0.08  0.00  0.03   -0.04 -0.02 -0.05   
     11   H               -0.07  0.02 -0.00    0.76 -0.26 -0.12    0.19 -0.07 -0.04   
     12   H               -0.12 -0.07  0.48    0.09  0.06 -0.42   -0.09 -0.06  0.36   
     13   H                0.29  0.26  0.25    0.15  0.15  0.16    0.36  0.33  0.32   
     14   O               -0.00 -0.00 -0.00   -0.00 -0.00 -0.00    0.00  0.00  0.00   
     15   H               -0.00 -0.00 -0.00   -0.00  0.00 -0.00    0.00  0.00  0.00   
     16   C               -0.00  0.00  0.00    0.00 -0.00 -0.00    0.00  0.00 -0.00   
     17   H                0.00 -0.00 -0.00   -0.00  0.00  0.00   -0.00  0.00  0.00   
     18   H               -0.00  0.00 -0.00   -0.00  0.00 -0.00    0.00 -0.00  0.00   
     19   H                0.00 -0.00 -0.00    0.00  0.00  0.00   -0.00 -0.00 -0.00   
     20   O                0.00 -0.00 -0.00    0.00  0.00 -0.00   -0.00  0.00  0.00   
     21   H               -0.00  0.00  0.00   -0.00 -0.00  0.00    0.00 -0.00 -0.00   

  Vibration                       61                  62                  63          
  Freq [cm^-1]                3286.5063           4049.8719           4111.4020       
  Irrep                           A                   A                   A           
  Reduced mass [u]              1.0985              1.0672              1.0669        
  Force const [mDyne/A]         6.9904             10.3128             10.6254        
  Turning point v=0 [a0]        0.1826              0.1669              0.1657        
  RMS dev v=0 [a0 u^1/2]        0.1353              0.1219              0.1210        
  Char temp [K]               4728.5437           5826.8551           5915.3831       
  ----------------------------------------------------------------------------------
      1   C                0.00  0.00 -0.00   -0.00  0.00  0.00   -0.00 -0.00  0.00   
      2   H               -0.00 -0.00  0.01    0.00 -0.00 -0.00   -0.00  0.00 -0.00   
      3   H               -0.00 -0.00 -0.00    0.01  0.00  0.00   -0.00  0.00  0.00   
      4   C                0.00  0.00 -0.00    0.00  0.00 -0.00    0.00  0.00 -0.00   
      5   H               -0.00 -0.00  0.00   -0.00 -0.00  0.00   -0.00  0.00 -0.00   
      6   H               -0.00 -0.00 -0.00   -0.00 -0.00 -0.00   -0.00  0.00  0.00   
      7   C                0.00  0.00 -0.00   -0.00 -0.00  0.00   -0.00  0.00  0.00   
      8   H               -0.00 -0.00  0.00    0.00  0.00 -0.00    0.00 -0.00 -0.00   
      9   H               -0.00  0.00 -0.00   -0.00 -0.00 -0.00    0.00  0.00  0.00   
     10   C                0.00 -0.00 -0.00    0.00  0.00 -0.00    0.00 -0.00 -0.00   
     11   H               -0.00  0.00  0.00    0.00 -0.00  0.00   -0.00  0.00  0.00   
     12   H               -0.00 -0.00  0.00   -0.00 -0.00  0.00    0.00  0.00 -0.00   
     13   H                0.00  0.00  0.00   -0.00 -0.00 -0.00    0.00  0.00  0.00   
     14   O               -0.00  0.00  0.00    0.00 -0.00  0.00    0.01 -0.06  0.01   
     15   H                0.00 -0.00 -0.00   -0.00  0.06 -0.01   -0.11  0.96 -0.22   
     16   C               -0.04 -0.06 -0.06   -0.00 -0.00 -0.00   -0.00  0.00  0.00   
     17   H               -0.11  0.13  0.05    0.01 -0.00 -0.00   -0.00 -0.00  0.00   
     18   H                0.09 -0.10  0.14    0.00  0.00 -0.01   -0.00 -0.00  0.00   
     19   H                0.53  0.64  0.48    0.01  0.01  0.00   -0.00 -0.00 -0.00   
     20   O                0.00  0.00  0.00   -0.04 -0.04 -0.03    0.00  0.00  0.00   
     21   H               -0.00 -0.01 -0.01    0.59  0.65  0.46   -0.04 -0.04 -0.03   

  ==> Thermochemistry Components <==

  Entropy, S
    Electronic S            0.000 [cal/(mol K)]        0.000 [J/(mol K)]       0.00000000 [mEh/K] (multiplicity = 1)
    Translational S        39.895 [cal/(mol K)]      166.919 [J/(mol K)]       0.06357599 [mEh/K] (mol. weight = 106.0994 [u], P = 101325.00 [Pa])
    Rotational S           29.429 [cal/(mol K)]      123.133 [J/(mol K)]       0.04689869 [mEh/K] (symmetry no. = 1)
    Vibrational S          39.445 [cal/(mol K)]      165.037 [J/(mol K)]       0.06285933 [mEh/K]
  Total S                 108.769 [cal/(mol K)]      455.088 [J/(mol K)]       0.17333400 [mEh/K]
  Correction S              0.000 [cal/(mol K)]        0.000 [J/(mol K)]       0.00000000 [mEh/K]

  Constant volume heat capacity, Cv
    Electronic Cv           0.000 [cal/(mol K)]        0.000 [J/(mol K)]       0.00000000 [mEh/K]
    Translational Cv        2.981 [cal/(mol K)]       12.472 [J/(mol K)]       0.00475022 [mEh/K]
    Rotational Cv           2.981 [cal/(mol K)]       12.472 [J/(mol K)]       0.00475022 [mEh/K]
    Vibrational Cv         28.979 [cal/(mol K)]      121.249 [J/(mol K)]       0.04618129 [mEh/K]
  Total Cv                 34.941 [cal/(mol K)]      146.192 [J/(mol K)]       0.05568173 [mEh/K]
  Correction Cv             0.000 [cal/(mol K)]        0.000 [J/(mol K)]       0.00000000 [mEh/K]

  Constant pressure heat capacity, Cp
    Electronic Cp           0.000 [cal/(mol K)]        0.000 [J/(mol K)]       0.00000000 [mEh/K]
    Translational Cp        4.968 [cal/(mol K)]       20.786 [J/(mol K)]       0.00791704 [mEh/K]
    Rotational Cp           2.981 [cal/(mol K)]       12.472 [J/(mol K)]       0.00475022 [mEh/K]
    Vibrational Cp         28.979 [cal/(mol K)]      121.249 [J/(mol K)]       0.04618129 [mEh/K]
  Total Cp                 36.928 [cal/(mol K)]      154.507 [J/(mol K)]       0.05884855 [mEh/K]
  Correction Cp             0.000 [cal/(mol K)]        0.000 [J/(mol K)]       0.00000000 [mEh/K]

  ==> Thermochemistry Energy Analysis <==

  Raw electronic energy, E0
  Total E0, Electronic energy at well bottom at 0 [K]                 -347.18979777 [Eh]

  Zero-point energy, ZPE_vib = Sum_i nu_i / 2
    Electronic ZPE          0.000 [kcal/mol]        0.000 [kJ/mol]       0.00000000 [Eh]
    Translational ZPE       0.000 [kcal/mol]        0.000 [kJ/mol]       0.00000000 [Eh]
    Rotational ZPE          0.000 [kcal/mol]        0.000 [kJ/mol]       0.00000000 [Eh]
    Vibrational ZPE       128.486 [kcal/mol]      537.584 [kJ/mol]       0.20475476 [Eh]       44938.468 [cm^-1]
  Correction ZPE          128.486 [kcal/mol]      537.584 [kJ/mol]       0.20475476 [Eh]       44938.468 [cm^-1]
  Total ZPE, Electronic energy at 0 [K]                               -346.98504301 [Eh]

  Thermal Energy, E (includes ZPE)
    Electronic E            0.000 [kcal/mol]        0.000 [kJ/mol]       0.00000000 [Eh]
    Translational E         0.889 [kcal/mol]        3.718 [kJ/mol]       0.00141628 [Eh]
    Rotational E            0.889 [kcal/mol]        3.718 [kJ/mol]       0.00141628 [Eh]
    Vibrational E         133.794 [kcal/mol]      559.796 [kJ/mol]       0.21321485 [Eh]
  Correction E            135.572 [kcal/mol]      567.232 [kJ/mol]       0.21604741 [Eh]
  Total E, Electronic energy at  298.15 [K]                           -346.97375036 [Eh]

  Enthalpy, H_trans = E_trans + k_B * T
    Electronic H            0.000 [kcal/mol]        0.000 [kJ/mol]       0.00000000 [Eh]
    Translational H         1.481 [kcal/mol]        6.197 [kJ/mol]       0.00236046 [Eh]
    Rotational H            0.889 [kcal/mol]        3.718 [kJ/mol]       0.00141628 [Eh]
    Vibrational H         133.794 [kcal/mol]      559.796 [kJ/mol]       0.21321485 [Eh]
  Correction H            136.164 [kcal/mol]      569.711 [kJ/mol]       0.21699159 [Eh]
  Total H, Enthalpy at  298.15 [K]                                    -346.97280618 [Eh]

  Gibbs free energy, G = H - T * S
    Electronic G            0.000 [kcal/mol]        0.000 [kJ/mol]       0.00000000 [Eh]
    Translational G       -10.413 [kcal/mol]      -43.569 [kJ/mol]      -0.01659472 [Eh]
    Rotational G           -7.886 [kcal/mol]      -32.994 [kJ/mol]      -0.01256657 [Eh]
    Vibrational G         122.034 [kcal/mol]      510.590 [kJ/mol]       0.19447334 [Eh]
  Correction G            103.735 [kcal/mol]      434.027 [kJ/mol]       0.16531206 [Eh]
  Total G, Free enthalpy at  298.15 [K]                               -347.02448571 [Eh]

    Psi4 stopped on: Thursday, 06 December 2018 04:37PM
    Psi4 wall time for execution: 0:07:52.06

*** Psi4 exiting successfully. Buy a developer a beer!
