
    -----------------------------------------------------------------------
          Psi4: An Open-Source Ab Initio Electronic Structure Package
                               Psi4 1.2.1 release

                         Git: Rev {HEAD} 406f4de 


    R. M. Parrish, L. A. Burns, D. G. A. Smith, A. C. Simmonett,
    A. E. DePrince III, E. G. Hohenstein, U. Bozkaya, A. Yu. Sokolov,
    R. Di Remigio, R. M. Richard, J. F. Gonthier, A. M. James,
    H. R. McAlexander, A. Kumar, M. Saitow, X. Wang, B. P. Pritchard,
    P. Verma, H. F. Schaefer III, K. Patkowski, R. A. King, E. F. Valeev,
    F. A. Evangelista, J. M. Turney, T. D. Crawford, and C. D. Sherrill,
    J. Chem. Theory Comput. 13(7) pp 3185--3197 (2017).
    (doi: 10.1021/acs.jctc.7b00174)


                         Additional Contributions by
    P. Kraus, H. Kruse, M. H. Lechner, M. C. Schieber, and R. A. Shaw

    -----------------------------------------------------------------------


    Psi4 started on: Thursday, 06 December 2018 04:37PM

    Process ID: 231207
    Host:       wr86
    PSIDATADIR: /usr/local/hpc1/software_molmod/psi4/psi4conda/share/psi4
    Memory:     500.0 MiB
    Threads:    16
    
  ==> Input File <==

--------------------------------------------------------------------------
memory 110 Gb

molecule molecule_1_psi {
0 1
    C           -0.717169886130    -0.028221694508     0.004452327835
    H           -1.091321641961    -0.576498367921    -0.856875672564
    H           -1.113708927287     0.976801983697    -0.032397148070
    H           -1.083040707832    -0.508489916123     0.908869000386
    O            0.678415804156     0.077615785161    -0.006171283781
    H            1.060339122161    -0.787601652874     0.025333467469
}

set globals {
  reference rhf
  basis 6-31G(d)
}
frequency('scf', dertype=1)
--------------------------------------------------------------------------

  Memory set to 102.445 GiB by Python driver.
gradient() will perform analytic gradient computation.

*** tstart() called on wr86
*** at Thu Dec  6 16:37:40 2018

   => Loading Basis Set <=

    Name: 6-31G(D)
    Role: ORBITAL
    Keyword: BASIS
    atoms 1      entry C          line   111 file /usr/local/hpc1/software_molmod/psi4/psi4conda/share/psi4/basis/6-31g_d_.gbs 
    atoms 2-4, 6 entry H          line    44 file /usr/local/hpc1/software_molmod/psi4/psi4conda/share/psi4/basis/6-31g_d_.gbs 
    atoms 5      entry O          line   145 file /usr/local/hpc1/software_molmod/psi4/psi4conda/share/psi4/basis/6-31g_d_.gbs 


         ---------------------------------------------------------
                                   SCF
            by Justin Turney, Rob Parrish, Andy Simmonett
                             and Daniel Smith
                              RHF Reference
                       16 Threads, 104904 MiB Core
         ---------------------------------------------------------

  ==> Geometry <==

    Molecular point group: c1
    Full point group: C1

    Geometry (in Angstrom), charge = 0, multiplicity = 1:

       Center              X                  Y                   Z               Mass       
    ------------   -----------------  -----------------  -----------------  -----------------
         C           -0.717169886130    -0.028221694508     0.004452327835    12.000000000000
         H           -1.091321641961    -0.576498367921    -0.856875672564     1.007825032070
         H           -1.113708927287     0.976801983697    -0.032397148070     1.007825032070
         H           -1.083040707832    -0.508489916123     0.908869000386     1.007825032070
         O            0.678415804156     0.077615785161    -0.006171283781    15.994914619560
         H            1.060339122161    -0.787601652874     0.025333467469     1.007825032070

  Running in c1 symmetry.

  Rotational constants: A =      4.37212  B =      0.84796  C =      0.81877 [cm^-1]
  Rotational constants: A = 131072.93518  B =  25421.09650  C =  24546.03810 [MHz]
  Nuclear repulsion =   40.786387053276606

  Charge       = 0
  Multiplicity = 1
  Electrons    = 18
  Nalpha       = 9
  Nbeta        = 9

  ==> Algorithm <==

  SCF Algorithm Type is DF.
  DIIS enabled.
  MOM disabled.
  Fractional occupation disabled.
  Guess Type is SAD.
  Energy threshold   = 1.00e-08
  Density threshold  = 1.00e-08
  Integral threshold = 0.00e+00

  ==> Primary Basis <==

  Basis Set: 6-31G(D)
    Blend: 6-31G(D)
    Number of shells: 20
    Number of basis function: 38
    Number of Cartesian functions: 38
    Spherical Harmonics?: false
    Max angular momentum: 2

   => Loading Basis Set <=

    Name: (6-31G(D) AUX)
    Role: JKFIT
    Keyword: DF_BASIS_SCF
    atoms 1      entry C          line   121 file /usr/local/hpc1/software_molmod/psi4/psi4conda/share/psi4/basis/cc-pvdz-jkfit.gbs 
    atoms 2-4, 6 entry H          line    51 file /usr/local/hpc1/software_molmod/psi4/psi4conda/share/psi4/basis/cc-pvdz-jkfit.gbs 
    atoms 5      entry O          line   221 file /usr/local/hpc1/software_molmod/psi4/psi4conda/share/psi4/basis/cc-pvdz-jkfit.gbs 

  ==> Pre-Iterations <==

   -------------------------------------------------------
    Irrep   Nso     Nmo     Nalpha   Nbeta   Ndocc  Nsocc
   -------------------------------------------------------
     A         38      38       0       0       0       0
   -------------------------------------------------------
    Total      38      38       9       9       9       0
   -------------------------------------------------------

  ==> Integral Setup <==

  ==> DiskDFJK: Density-Fitted J/K Matrices <==

    J tasked:                  Yes
    K tasked:                  Yes
    wK tasked:                  No
    OpenMP threads:             16
    Integrals threads:          16
    Memory (MB):             78678
    Algorithm:                Core
    Integral Cache:           NONE
    Schwarz Cutoff:          1E-12
    Fitting Condition:       1E-12

   => Auxiliary Basis Set <=

  Basis Set: (6-31G(D) AUX)
    Blend: CC-PVDZ-JKFIT
    Number of shells: 84
    Number of basis function: 262
    Number of Cartesian functions: 262
    Spherical Harmonics?: false
    Max angular momentum: 3

  Minimum eigenvalue in the overlap matrix is 9.3054314398E-03.
  Using Symmetric Orthogonalization.

  SCF Guess: Superposition of Atomic Densities via on-the-fly atomic UHF.

  ==> Iterations <==

                           Total Energy        Delta E     RMS |[F,P]|

   @DF-RHF iter   0:  -115.66489170548181   -1.15665e+02   1.91280e-01 
   @DF-RHF iter   1:  -114.97200321263892    6.92888e-01   1.54041e-02 
   @DF-RHF iter   2:  -115.02632061343981   -5.43174e-02   9.71822e-03 DIIS
   @DF-RHF iter   3:  -115.03390288508106   -7.58227e-03   2.95228e-03 DIIS
   @DF-RHF iter   4:  -115.03524630974346   -1.34342e-03   1.12975e-03 DIIS
   @DF-RHF iter   5:  -115.03534606977479   -9.97600e-05   1.15946e-04 DIIS
   @DF-RHF iter   6:  -115.03535359913784   -7.52936e-06   4.52949e-05 DIIS
   @DF-RHF iter   7:  -115.03535409892949   -4.99792e-07   2.06505e-05 DIIS
   @DF-RHF iter   8:  -115.03535414164124   -4.27117e-08   1.53699e-06 DIIS
   @DF-RHF iter   9:  -115.03535414338846   -1.74722e-09   3.61841e-07 DIIS
   @DF-RHF iter  10:  -115.03535414342865   -4.01883e-11   1.26463e-07 DIIS
   @DF-RHF iter  11:  -115.03535414343139   -2.74269e-12   1.99649e-08 DIIS
   @DF-RHF iter  12:  -115.03535414343168   -2.84217e-13   4.31793e-09 DIIS

  ==> Post-Iterations <==

    Orbital Energies [Eh]
    ---------------------

    Doubly Occupied:                                                      

       1A    -20.555376     2A    -11.266760     3A     -1.360291  
       4A     -0.926848     5A     -0.693626     6A     -0.620848  
       7A     -0.595337     8A     -0.497346     9A     -0.443292  

    Virtual:                                                              

      10A      0.226850    11A      0.280354    12A      0.323828  
      13A      0.330610    14A      0.387580    15A      0.762333  
      16A      0.774498    17A      0.798653    18A      1.055546  
      19A      1.130357    20A      1.151906    21A      1.189568  
      22A      1.218156    23A      1.253819    24A      1.270445  
      25A      1.409844    26A      1.725228    27A      1.776687  
      28A      1.872481    29A      2.032983    30A      2.388348  
      31A      2.456651    32A      2.478718    33A      2.705508  
      34A      2.757115    35A      2.824501    36A      3.168215  
      37A      4.136170    38A      4.642613  

    Final Occupation by Irrep:
              A 
    DOCC [     9 ]

  Energy converged.

  @DF-RHF Final Energy:  -115.03535414343168

   => Energetics <=

    Nuclear Repulsion Energy =             40.7863870532766057
    One-Electron Energy =                -237.7240366931955009
    Two-Electron Energy =                  81.9022954964872270
    Total Energy =                       -115.0353541434316753



Properties will be evaluated at   0.000000,   0.000000,   0.000000 [a0]

Properties computed using the SCF density matrix

  Nuclear Dipole Moment: [e a0]
     X:    -2.0852      Y:    -0.8394      Z:     0.0421

  Electronic Dipole Moment: [e a0]
     X:     1.7173      Y:     0.2040      Z:    -0.0159

  Dipole Moment: [e a0]
     X:    -0.3678      Y:    -0.6354      Z:     0.0262     Total:     0.7346

  Dipole Moment: [D]
     X:    -0.9350      Y:    -1.6150      Z:     0.0665     Total:     1.8673


*** tstop() called on wr86 at Thu Dec  6 16:37:41 2018
Module time:
	user time   =       8.75 seconds =       0.15 minutes
	system time =       0.40 seconds =       0.01 minutes
	total time  =          1 seconds =       0.02 minutes
Total time:
	user time   =       8.75 seconds =       0.15 minutes
	system time =       0.40 seconds =       0.01 minutes
	total time  =          1 seconds =       0.02 minutes

*** tstart() called on wr86
*** at Thu Dec  6 16:37:41 2018


         ------------------------------------------------------------
                                   SCF GRAD                          
                          Rob Parrish, Justin Turney,                
                       Andy Simmonett, and Alex Sokolov              
         ------------------------------------------------------------

  ==> Geometry <==

    Molecular point group: c1
    Full point group: C1

    Geometry (in Angstrom), charge = 0, multiplicity = 1:

       Center              X                  Y                   Z               Mass       
    ------------   -----------------  -----------------  -----------------  -----------------
         C           -0.717169886130    -0.028221694508     0.004452327835    12.000000000000
         H           -1.091321641961    -0.576498367921    -0.856875672564     1.007825032070
         H           -1.113708927287     0.976801983697    -0.032397148070     1.007825032070
         H           -1.083040707832    -0.508489916123     0.908869000386     1.007825032070
         O            0.678415804156     0.077615785161    -0.006171283781    15.994914619560
         H            1.060339122161    -0.787601652874     0.025333467469     1.007825032070

  Nuclear repulsion =   40.786387053276606

  ==> Basis Set <==

  Basis Set: 6-31G(D)
    Blend: 6-31G(D)
    Number of shells: 20
    Number of basis function: 38
    Number of Cartesian functions: 38
    Spherical Harmonics?: false
    Max angular momentum: 2

  ==> DFJKGrad: Density-Fitted SCF Gradients <==

    Gradient:                    1
    J tasked:                  Yes
    K tasked:                  Yes
    wK tasked:                  No
    OpenMP threads:             16
    Integrals threads:          16
    Memory (MB):             78678
    Schwarz Cutoff:          0E+00
    Fitting Condition:       1E-12

   => Auxiliary Basis Set <=

  Basis Set: (6-31G(D) AUX)
    Blend: CC-PVDZ-JKFIT
    Number of shells: 84
    Number of basis function: 262
    Number of Cartesian functions: 262
    Spherical Harmonics?: false
    Max angular momentum: 3


  -Total Gradient:
     Atom            X                  Y                   Z
    ------   -----------------  -----------------  -----------------
       1        0.000004666576    -0.000002190549    -0.000001155003
       2        0.000001011177     0.000001834319     0.000000243809
       3       -0.000001908121     0.000000551273    -0.000000062912
       4        0.000000136908     0.000001148254     0.000001049084
       5       -0.000004575878    -0.000000471025     0.000000082794
       6        0.000000669337    -0.000000872272    -0.000000157773


*** tstop() called on wr86 at Thu Dec  6 16:37:42 2018
Module time:
	user time   =      10.40 seconds =       0.17 minutes
	system time =       0.47 seconds =       0.01 minutes
	total time  =          1 seconds =       0.02 minutes
Total time:
	user time   =      19.17 seconds =       0.32 minutes
	system time =       0.88 seconds =       0.01 minutes
	total time  =          2 seconds =       0.03 minutes

  Based on options and gradient (rms=3.19E-06), recommend projecting translations and projecting rotations.
hessian() will perform frequency computation by finite difference of analytic gradients.

-------------------------------------------------------------

  Using finite-differences of gradients to determine vibrational frequencies and 
  normal modes.  Resulting frequencies are only valid at stationary points.
	Generating geometries for use with 3-point formula.
	Displacement size will be 5.00e-03.
	Number of atoms is 6.
	Number of irreps is 1.
	Number of SALCS is 12.
	Translations projected? 1. Rotations projected? 1.
	Index of salcs per irrep:
	 1 :  0  1  2  3  4  5  6  7  8  9  10  11 
	Number of SALC's per irrep:
		 Irrep 1: 12
	Number of geometries (including reference) is 25.
	Number of displacements per irrep:
	  Irrep 1: 24

  //>>>>>>>>>>>>>>>>>>>>>>>>>>>>>>>>>>>//
  //    Loading displacement 1 of 25   //
  //<<<<<<<<<<<<<<<<<<<<<<<<<<<<<<<<<<<//
gradient() will perform analytic gradient computation.

*** tstart() called on wr86
*** at Thu Dec  6 16:37:42 2018

   => Loading Basis Set <=

    Name: 6-31G(D)
    Role: ORBITAL
    Keyword: BASIS
    atoms 1      entry C          line   111 file /usr/local/hpc1/software_molmod/psi4/psi4conda/share/psi4/basis/6-31g_d_.gbs 
    atoms 2-4, 6 entry H          line    44 file /usr/local/hpc1/software_molmod/psi4/psi4conda/share/psi4/basis/6-31g_d_.gbs 
    atoms 5      entry O          line   145 file /usr/local/hpc1/software_molmod/psi4/psi4conda/share/psi4/basis/6-31g_d_.gbs 


         ---------------------------------------------------------
                                   SCF
            by Justin Turney, Rob Parrish, Andy Simmonett
                             and Daniel Smith
                              RHF Reference
                       16 Threads, 104904 MiB Core
         ---------------------------------------------------------

  ==> Geometry <==

    Molecular point group: c1
    Full point group: C1

    Geometry (in Angstrom), charge = 0, multiplicity = 1:

       Center              X                  Y                   Z               Mass       
    ------------   -----------------  -----------------  -----------------  -----------------
         C           -0.717773642573    -0.028233091123     0.004454176545    12.000000000000
         H           -1.090952628651    -0.576515841841    -0.856872778055     1.007825032070
         H           -1.113362478706     0.976784279652    -0.032394432717     1.007825032070
         H           -1.082668234195    -0.508506989334     0.908871863233     1.007825032070
         O            0.678776610088     0.077626565632    -0.006173040351    15.994914619560
         H            1.060713759187    -0.787584798061     0.025330860537     1.007825032070

  Running in c1 symmetry.

  Rotational constants: A =      4.37213  B =      0.84725  C =      0.81811 [cm^-1]
  Rotational constants: A = 131073.15521  B =  25399.83019  C =  24526.21781 [MHz]
  Nuclear repulsion =   40.775874654965534

  Charge       = 0
  Multiplicity = 1
  Electrons    = 18
  Nalpha       = 9
  Nbeta        = 9

  ==> Algorithm <==

  SCF Algorithm Type is DF.
  DIIS enabled.
  MOM disabled.
  Fractional occupation disabled.
  Guess Type is SAD.
  Energy threshold   = 1.00e-08
  Density threshold  = 1.00e-08
  Integral threshold = 0.00e+00

  ==> Primary Basis <==

  Basis Set: 6-31G(D)
    Blend: 6-31G(D)
    Number of shells: 20
    Number of basis function: 38
    Number of Cartesian functions: 38
    Spherical Harmonics?: false
    Max angular momentum: 2

   => Loading Basis Set <=

    Name: (6-31G(D) AUX)
    Role: JKFIT
    Keyword: DF_BASIS_SCF
    atoms 1      entry C          line   121 file /usr/local/hpc1/software_molmod/psi4/psi4conda/share/psi4/basis/cc-pvdz-jkfit.gbs 
    atoms 2-4, 6 entry H          line    51 file /usr/local/hpc1/software_molmod/psi4/psi4conda/share/psi4/basis/cc-pvdz-jkfit.gbs 
    atoms 5      entry O          line   221 file /usr/local/hpc1/software_molmod/psi4/psi4conda/share/psi4/basis/cc-pvdz-jkfit.gbs 

  ==> Pre-Iterations <==

   -------------------------------------------------------
    Irrep   Nso     Nmo     Nalpha   Nbeta   Ndocc  Nsocc
   -------------------------------------------------------
     A         38      38       0       0       0       0
   -------------------------------------------------------
    Total      38      38       9       9       9       0
   -------------------------------------------------------

  ==> Integral Setup <==

  ==> DiskDFJK: Density-Fitted J/K Matrices <==

    J tasked:                  Yes
    K tasked:                  Yes
    wK tasked:                  No
    OpenMP threads:             16
    Integrals threads:          16
    Memory (MB):             78678
    Algorithm:                Core
    Integral Cache:           NONE
    Schwarz Cutoff:          1E-12
    Fitting Condition:       1E-12

   => Auxiliary Basis Set <=

  Basis Set: (6-31G(D) AUX)
    Blend: CC-PVDZ-JKFIT
    Number of shells: 84
    Number of basis function: 262
    Number of Cartesian functions: 262
    Spherical Harmonics?: false
    Max angular momentum: 3

  Minimum eigenvalue in the overlap matrix is 9.3102802707E-03.
  Using Symmetric Orthogonalization.

  SCF Guess: Superposition of Atomic Densities via on-the-fly atomic UHF.

  ==> Iterations <==

                           Total Energy        Delta E     RMS |[F,P]|

   @DF-RHF iter   0:  -115.54407033625668   -1.15544e+02   1.70514e-01 
   @DF-RHF iter   1:  -114.98493670650890    5.59134e-01   1.65811e-02 
   @DF-RHF iter   2:  -115.02993182115631   -4.49951e-02   4.91392e-03 DIIS
   @DF-RHF iter   3:  -115.03426791642764   -4.33610e-03   3.67054e-03 DIIS
   @DF-RHF iter   4:  -115.03524036128017   -9.72445e-04   4.62985e-04 DIIS
   @DF-RHF iter   5:  -115.03534503289737   -1.04672e-04   1.17166e-04 DIIS
   @DF-RHF iter   6:  -115.03535284644261   -7.81355e-06   2.47950e-05 DIIS
   @DF-RHF iter   7:  -115.03535316158506   -3.15142e-07   7.63079e-06 DIIS
   @DF-RHF iter   8:  -115.03535318035446   -1.87694e-08   3.12931e-06 DIIS
   @DF-RHF iter   9:  -115.03535318141076   -1.05629e-09   6.82037e-07 DIIS
   @DF-RHF iter  10:  -115.03535318151603   -1.05274e-10   1.90536e-07 DIIS
   @DF-RHF iter  11:  -115.03535318152505   -9.02389e-12   2.29765e-08 DIIS
   @DF-RHF iter  12:  -115.03535318152521   -1.56319e-13   3.38986e-09 DIIS

  ==> Post-Iterations <==

    Orbital Energies [Eh]
    ---------------------

    Doubly Occupied:                                                      

       1A    -20.555266     2A    -11.266721     3A     -1.359868  
       4A     -0.926948     5A     -0.693375     6A     -0.620820  
       7A     -0.595104     8A     -0.497462     9A     -0.443366  

    Virtual:                                                              

      10A      0.226860    11A      0.280412    12A      0.323852  
      13A      0.330584    14A      0.387278    15A      0.762144  
      16A      0.774349    17A      0.798230    18A      1.055831  
      19A      1.130713    20A      1.151846    21A      1.189684  
      22A      1.218343    23A      1.253832    24A      1.270562  
      25A      1.409872    26A      1.725161    27A      1.776539  
      28A      1.872404    29A      2.033305    30A      2.388443  
      31A      2.456109    32A      2.479210    33A      2.704635  
      34A      2.756019    35A      2.824513    36A      3.167848  
      37A      4.135836    38A      4.642884  

    Final Occupation by Irrep:
              A 
    DOCC [     9 ]

  Energy converged.

  @DF-RHF Final Energy:  -115.03535318152521

   => Energetics <=

    Nuclear Repulsion Energy =             40.7758746549655342
    One-Electron Energy =                -237.7045948611346660
    Two-Electron Energy =                  81.8933670246439362
    Total Energy =                       -115.0353531815252097



Properties will be evaluated at   0.000000,   0.000000,   0.000000 [a0]

Properties computed using the SCF density matrix

  Nuclear Dipole Moment: [e a0]
     X:    -2.0838      Y:    -0.8394      Z:     0.0421

  Electronic Dipole Moment: [e a0]
     X:     1.7142      Y:     0.2040      Z:    -0.0159

  Dipole Moment: [e a0]
     X:    -0.3696      Y:    -0.6355      Z:     0.0262     Total:     0.7356

  Dipole Moment: [D]
     X:    -0.9393      Y:    -1.6152      Z:     0.0666     Total:     1.8697


*** tstop() called on wr86 at Thu Dec  6 16:37:43 2018
Module time:
	user time   =      11.63 seconds =       0.19 minutes
	system time =       0.44 seconds =       0.01 minutes
	total time  =          1 seconds =       0.02 minutes
Total time:
	user time   =      30.97 seconds =       0.52 minutes
	system time =       1.34 seconds =       0.02 minutes
	total time  =          3 seconds =       0.05 minutes

*** tstart() called on wr86
*** at Thu Dec  6 16:37:43 2018


         ------------------------------------------------------------
                                   SCF GRAD                          
                          Rob Parrish, Justin Turney,                
                       Andy Simmonett, and Alex Sokolov              
         ------------------------------------------------------------

  ==> Geometry <==

    Molecular point group: c1
    Full point group: C1

    Geometry (in Angstrom), charge = 0, multiplicity = 1:

       Center              X                  Y                   Z               Mass       
    ------------   -----------------  -----------------  -----------------  -----------------
         C           -0.717773642573    -0.028233091123     0.004454176545    12.000000000000
         H           -1.090952628651    -0.576515841841    -0.856872778055     1.007825032070
         H           -1.113362478706     0.976784279652    -0.032394432717     1.007825032070
         H           -1.082668234195    -0.508506989334     0.908871863233     1.007825032070
         O            0.678776610088     0.077626565632    -0.006173040351    15.994914619560
         H            1.060713759187    -0.787584798061     0.025330860537     1.007825032070

  Nuclear repulsion =   40.775874654965534

  ==> Basis Set <==

  Basis Set: 6-31G(D)
    Blend: 6-31G(D)
    Number of shells: 20
    Number of basis function: 38
    Number of Cartesian functions: 38
    Spherical Harmonics?: false
    Max angular momentum: 2

  ==> DFJKGrad: Density-Fitted SCF Gradients <==

    Gradient:                    1
    J tasked:                  Yes
    K tasked:                  Yes
    wK tasked:                  No
    OpenMP threads:             16
    Integrals threads:          16
    Memory (MB):             78678
    Schwarz Cutoff:          0E+00
    Fitting Condition:       1E-12

   => Auxiliary Basis Set <=

  Basis Set: (6-31G(D) AUX)
    Blend: CC-PVDZ-JKFIT
    Number of shells: 84
    Number of basis function: 262
    Number of Cartesian functions: 262
    Spherical Harmonics?: false
    Max angular momentum: 3


  -Total Gradient:
     Atom            X                  Y                   Z
    ------   -----------------  -----------------  -----------------
       1       -0.001057548785     0.000035464158    -0.000003162763
       2        0.000154893677     0.000075107766     0.000118250699
       3        0.000159447160    -0.000176651635     0.000006561611
       4        0.000151842267     0.000063419385    -0.000119264791
       5        0.000550108764    -0.000015337478    -0.000001312359
       6        0.000041256918     0.000017997804    -0.000001072397


*** tstop() called on wr86 at Thu Dec  6 16:37:44 2018
Module time:
	user time   =      10.37 seconds =       0.17 minutes
	system time =       0.53 seconds =       0.01 minutes
	total time  =          1 seconds =       0.02 minutes
Total time:
	user time   =      41.36 seconds =       0.69 minutes
	system time =       1.87 seconds =       0.03 minutes
	total time  =          4 seconds =       0.07 minutes

  //>>>>>>>>>>>>>>>>>>>>>>>>>>>>>>>>>>>//
  //    Loading displacement 2 of 25   //
  //<<<<<<<<<<<<<<<<<<<<<<<<<<<<<<<<<<<//
gradient() will perform analytic gradient computation.

*** tstart() called on wr86
*** at Thu Dec  6 16:37:44 2018

   => Loading Basis Set <=

    Name: 6-31G(D)
    Role: ORBITAL
    Keyword: BASIS
    atoms 1      entry C          line   111 file /usr/local/hpc1/software_molmod/psi4/psi4conda/share/psi4/basis/6-31g_d_.gbs 
    atoms 2-4, 6 entry H          line    44 file /usr/local/hpc1/software_molmod/psi4/psi4conda/share/psi4/basis/6-31g_d_.gbs 
    atoms 5      entry O          line   145 file /usr/local/hpc1/software_molmod/psi4/psi4conda/share/psi4/basis/6-31g_d_.gbs 


         ---------------------------------------------------------
                                   SCF
            by Justin Turney, Rob Parrish, Andy Simmonett
                             and Daniel Smith
                              RHF Reference
                       16 Threads, 104904 MiB Core
         ---------------------------------------------------------

  ==> Geometry <==

    Molecular point group: c1
    Full point group: C1

    Geometry (in Angstrom), charge = 0, multiplicity = 1:

       Center              X                  Y                   Z               Mass       
    ------------   -----------------  -----------------  -----------------  -----------------
         C           -0.716566129687    -0.028210297894     0.004450479125    12.000000000000
         H           -1.091690655271    -0.576480894001    -0.856878567073     1.007825032070
         H           -1.114055375868     0.976819687742    -0.032399863423     1.007825032070
         H           -1.083413181469    -0.508472842912     0.908866137539     1.007825032070
         O            0.678054998224     0.077605004690    -0.006169527211    15.994914619560
         H            1.059964485134    -0.787618507688     0.025336074401     1.007825032070

  Running in c1 symmetry.

  Rotational constants: A =      4.37212  B =      0.84867  C =      0.81943 [cm^-1]
  Rotational constants: A = 131072.71523  B =  25442.38051  C =  24565.87374 [MHz]
  Nuclear repulsion =   40.796912833789236

  Charge       = 0
  Multiplicity = 1
  Electrons    = 18
  Nalpha       = 9
  Nbeta        = 9

  ==> Algorithm <==

  SCF Algorithm Type is DF.
  DIIS enabled.
  MOM disabled.
  Fractional occupation disabled.
  Guess Type is SAD.
  Energy threshold   = 1.00e-08
  Density threshold  = 1.00e-08
  Integral threshold = 0.00e+00

  ==> Primary Basis <==

  Basis Set: 6-31G(D)
    Blend: 6-31G(D)
    Number of shells: 20
    Number of basis function: 38
    Number of Cartesian functions: 38
    Spherical Harmonics?: false
    Max angular momentum: 2

   => Loading Basis Set <=

    Name: (6-31G(D) AUX)
    Role: JKFIT
    Keyword: DF_BASIS_SCF
    atoms 1      entry C          line   121 file /usr/local/hpc1/software_molmod/psi4/psi4conda/share/psi4/basis/cc-pvdz-jkfit.gbs 
    atoms 2-4, 6 entry H          line    51 file /usr/local/hpc1/software_molmod/psi4/psi4conda/share/psi4/basis/cc-pvdz-jkfit.gbs 
    atoms 5      entry O          line   221 file /usr/local/hpc1/software_molmod/psi4/psi4conda/share/psi4/basis/cc-pvdz-jkfit.gbs 

  ==> Pre-Iterations <==

   -------------------------------------------------------
    Irrep   Nso     Nmo     Nalpha   Nbeta   Ndocc  Nsocc
   -------------------------------------------------------
     A         38      38       0       0       0       0
   -------------------------------------------------------
    Total      38      38       9       9       9       0
   -------------------------------------------------------

  ==> Integral Setup <==

  ==> DiskDFJK: Density-Fitted J/K Matrices <==

    J tasked:                  Yes
    K tasked:                  Yes
    wK tasked:                  No
    OpenMP threads:             16
    Integrals threads:          16
    Memory (MB):             78678
    Algorithm:                Core
    Integral Cache:           NONE
    Schwarz Cutoff:          1E-12
    Fitting Condition:       1E-12

   => Auxiliary Basis Set <=

  Basis Set: (6-31G(D) AUX)
    Blend: CC-PVDZ-JKFIT
    Number of shells: 84
    Number of basis function: 262
    Number of Cartesian functions: 262
    Spherical Harmonics?: false
    Max angular momentum: 3

  Minimum eigenvalue in the overlap matrix is 9.3005700889E-03.
  Using Symmetric Orthogonalization.

  SCF Guess: Superposition of Atomic Densities via on-the-fly atomic UHF.

  ==> Iterations <==

                           Total Energy        Delta E     RMS |[F,P]|

   @DF-RHF iter   0:  -115.55851951497873   -1.15559e+02   1.39971e-01 
   @DF-RHF iter   1:  -114.98778870451169    5.70731e-01   2.08685e-02 
   @DF-RHF iter   2:  -115.03001178414402   -4.22231e-02   4.20544e-03 DIIS
   @DF-RHF iter   3:  -115.03429120736948   -4.27942e-03   2.69980e-03 DIIS
   @DF-RHF iter   4:  -115.03522024120544   -9.29034e-04   5.47352e-04 DIIS
   @DF-RHF iter   5:  -115.03534297493152   -1.22734e-04   1.37738e-04 DIIS
   @DF-RHF iter   6:  -115.03535258095650   -9.60602e-06   3.40699e-05 DIIS
   @DF-RHF iter   7:  -115.03535309523289   -5.14276e-07   1.99565e-05 DIIS
   @DF-RHF iter   8:  -115.03535315708908   -6.18562e-08   2.70955e-06 DIIS
   @DF-RHF iter   9:  -115.03535316156572   -4.47665e-09   6.30779e-07 DIIS
   @DF-RHF iter  10:  -115.03535316173559   -1.69862e-10   1.77084e-07 DIIS
   @DF-RHF iter  11:  -115.03535316174481   -9.22284e-12   2.42345e-08 DIIS
   @DF-RHF iter  12:  -115.03535316174514   -3.26850e-13   4.98178e-09 DIIS

  ==> Post-Iterations <==

    Orbital Energies [Eh]
    ---------------------

    Doubly Occupied:                                                      

       1A    -20.555485     2A    -11.266798     3A     -1.360715  
       4A     -0.926749     5A     -0.693879     6A     -0.620877  
       7A     -0.595571     8A     -0.497228     9A     -0.443216  

    Virtual:                                                              

      10A      0.226840    11A      0.280296    12A      0.323804  
      13A      0.330637    14A      0.387882    15A      0.762522  
      16A      0.774646    17A      0.799079    18A      1.055260  
      19A      1.130000    20A      1.151965    21A      1.189455  
      22A      1.217968    23A      1.253806    24A      1.270328  
      25A      1.409816    26A      1.725294    27A      1.776836  
      28A      1.872560    29A      2.032660    30A      2.388231  
      31A      2.457213    32A      2.478225    33A      2.706380  
      34A      2.758210    35A      2.824490    36A      3.168584  
      37A      4.136504    38A      4.642342  

    Final Occupation by Irrep:
              A 
    DOCC [     9 ]

  Energy converged.

  @DF-RHF Final Energy:  -115.03535316174514

   => Energetics <=

    Nuclear Repulsion Energy =             40.7969128337892357
    One-Electron Energy =                -237.7434970715108307
    Two-Electron Energy =                  81.9112310759764597
    Total Energy =                       -115.0353531617451353



Properties will be evaluated at   0.000000,   0.000000,   0.000000 [a0]

Properties computed using the SCF density matrix

  Nuclear Dipole Moment: [e a0]
     X:    -2.0865      Y:    -0.8394      Z:     0.0421

  Electronic Dipole Moment: [e a0]
     X:     1.7204      Y:     0.2041      Z:    -0.0159

  Dipole Moment: [e a0]
     X:    -0.3661      Y:    -0.6353      Z:     0.0262     Total:     0.7337

  Dipole Moment: [D]
     X:    -0.9306      Y:    -1.6147      Z:     0.0665     Total:     1.8649


*** tstop() called on wr86 at Thu Dec  6 16:37:44 2018
Module time:
	user time   =      11.44 seconds =       0.19 minutes
	system time =       0.37 seconds =       0.01 minutes
	total time  =          0 seconds =       0.00 minutes
Total time:
	user time   =      52.95 seconds =       0.88 minutes
	system time =       2.26 seconds =       0.04 minutes
	total time  =          4 seconds =       0.07 minutes

*** tstart() called on wr86
*** at Thu Dec  6 16:37:44 2018


         ------------------------------------------------------------
                                   SCF GRAD                          
                          Rob Parrish, Justin Turney,                
                       Andy Simmonett, and Alex Sokolov              
         ------------------------------------------------------------

  ==> Geometry <==

    Molecular point group: c1
    Full point group: C1

    Geometry (in Angstrom), charge = 0, multiplicity = 1:

       Center              X                  Y                   Z               Mass       
    ------------   -----------------  -----------------  -----------------  -----------------
         C           -0.716566129687    -0.028210297894     0.004450479125    12.000000000000
         H           -1.091690655271    -0.576480894001    -0.856878567073     1.007825032070
         H           -1.114055375868     0.976819687742    -0.032399863423     1.007825032070
         H           -1.083413181469    -0.508472842912     0.908866137539     1.007825032070
         O            0.678054998224     0.077605004690    -0.006169527211    15.994914619560
         H            1.059964485134    -0.787618507688     0.025336074401     1.007825032070

  Nuclear repulsion =   40.796912833789236

  ==> Basis Set <==

  Basis Set: 6-31G(D)
    Blend: 6-31G(D)
    Number of shells: 20
    Number of basis function: 38
    Number of Cartesian functions: 38
    Spherical Harmonics?: false
    Max angular momentum: 2

  ==> DFJKGrad: Density-Fitted SCF Gradients <==

    Gradient:                    1
    J tasked:                  Yes
    K tasked:                  Yes
    wK tasked:                  No
    OpenMP threads:             16
    Integrals threads:          16
    Memory (MB):             78678
    Schwarz Cutoff:          0E+00
    Fitting Condition:       1E-12

   => Auxiliary Basis Set <=

  Basis Set: (6-31G(D) AUX)
    Blend: CC-PVDZ-JKFIT
    Number of shells: 84
    Number of basis function: 262
    Number of Cartesian functions: 262
    Spherical Harmonics?: false
    Max angular momentum: 3


  -Total Gradient:
     Atom            X                  Y                   Z
    ------   -----------------  -----------------  -----------------
       1        0.001071352407    -0.000039598389     0.000000809236
       2       -0.000153091683    -0.000071306503    -0.000117538270
       3       -0.000163492065     0.000177432542    -0.000006675028
       4       -0.000151802404    -0.000061019876     0.000121151452
       5       -0.000562898601     0.000014223980     0.000001489796
       6       -0.000040067654    -0.000019731753     0.000000762813


*** tstop() called on wr86 at Thu Dec  6 16:37:45 2018
Module time:
	user time   =      10.36 seconds =       0.17 minutes
	system time =       0.52 seconds =       0.01 minutes
	total time  =          1 seconds =       0.02 minutes
Total time:
	user time   =      63.34 seconds =       1.06 minutes
	system time =       2.78 seconds =       0.05 minutes
	total time  =          5 seconds =       0.08 minutes

  //>>>>>>>>>>>>>>>>>>>>>>>>>>>>>>>>>>>//
  //    Loading displacement 3 of 25   //
  //<<<<<<<<<<<<<<<<<<<<<<<<<<<<<<<<<<<//
gradient() will perform analytic gradient computation.

*** tstart() called on wr86
*** at Thu Dec  6 16:37:45 2018

   => Loading Basis Set <=

    Name: 6-31G(D)
    Role: ORBITAL
    Keyword: BASIS
    atoms 1      entry C          line   111 file /usr/local/hpc1/software_molmod/psi4/psi4conda/share/psi4/basis/6-31g_d_.gbs 
    atoms 2-4, 6 entry H          line    44 file /usr/local/hpc1/software_molmod/psi4/psi4conda/share/psi4/basis/6-31g_d_.gbs 
    atoms 5      entry O          line   145 file /usr/local/hpc1/software_molmod/psi4/psi4conda/share/psi4/basis/6-31g_d_.gbs 


         ---------------------------------------------------------
                                   SCF
            by Justin Turney, Rob Parrish, Andy Simmonett
                             and Daniel Smith
                              RHF Reference
                       16 Threads, 104904 MiB Core
         ---------------------------------------------------------

  ==> Geometry <==

    Molecular point group: c1
    Full point group: C1

    Geometry (in Angstrom), charge = 0, multiplicity = 1:

       Center              X                  Y                   Z               Mass       
    ------------   -----------------  -----------------  -----------------  -----------------
         C           -0.717169886130    -0.028657319471     0.004452950787    12.000000000000
         H           -1.091654645048    -0.575389660119    -0.856871948911     1.007825032070
         H           -1.113171202865     0.977927522346    -0.032401490285     1.007825032070
         H           -1.083334439362    -0.507376661483     0.908872364741     1.007825032070
         O            0.678449809566     0.077737487424    -0.006172137967    15.994914619560
         H            1.059888441827    -0.787693745388     0.025336860840     1.007825032070

  Running in c1 symmetry.

  Rotational constants: A =      4.37164  B =      0.84795  C =      0.81875 [cm^-1]
  Rotational constants: A = 131058.35364  B =  25421.03257  C =  24545.46711 [MHz]
  Nuclear repulsion =   40.785811201943631

  Charge       = 0
  Multiplicity = 1
  Electrons    = 18
  Nalpha       = 9
  Nbeta        = 9

  ==> Algorithm <==

  SCF Algorithm Type is DF.
  DIIS enabled.
  MOM disabled.
  Fractional occupation disabled.
  Guess Type is SAD.
  Energy threshold   = 1.00e-08
  Density threshold  = 1.00e-08
  Integral threshold = 0.00e+00

  ==> Primary Basis <==

  Basis Set: 6-31G(D)
    Blend: 6-31G(D)
    Number of shells: 20
    Number of basis function: 38
    Number of Cartesian functions: 38
    Spherical Harmonics?: false
    Max angular momentum: 2

   => Loading Basis Set <=

    Name: (6-31G(D) AUX)
    Role: JKFIT
    Keyword: DF_BASIS_SCF
    atoms 1      entry C          line   121 file /usr/local/hpc1/software_molmod/psi4/psi4conda/share/psi4/basis/cc-pvdz-jkfit.gbs 
    atoms 2-4, 6 entry H          line    51 file /usr/local/hpc1/software_molmod/psi4/psi4conda/share/psi4/basis/cc-pvdz-jkfit.gbs 
    atoms 5      entry O          line   221 file /usr/local/hpc1/software_molmod/psi4/psi4conda/share/psi4/basis/cc-pvdz-jkfit.gbs 

  ==> Pre-Iterations <==

   -------------------------------------------------------
    Irrep   Nso     Nmo     Nalpha   Nbeta   Ndocc  Nsocc
   -------------------------------------------------------
     A         38      38       0       0       0       0
   -------------------------------------------------------
    Total      38      38       9       9       9       0
   -------------------------------------------------------

  ==> Integral Setup <==

  ==> DiskDFJK: Density-Fitted J/K Matrices <==

    J tasked:                  Yes
    K tasked:                  Yes
    wK tasked:                  No
    OpenMP threads:             16
    Integrals threads:          16
    Memory (MB):             78678
    Algorithm:                Core
    Integral Cache:           NONE
    Schwarz Cutoff:          1E-12
    Fitting Condition:       1E-12

   => Auxiliary Basis Set <=

  Basis Set: (6-31G(D) AUX)
    Blend: CC-PVDZ-JKFIT
    Number of shells: 84
    Number of basis function: 262
    Number of Cartesian functions: 262
    Spherical Harmonics?: false
    Max angular momentum: 3

  Minimum eigenvalue in the overlap matrix is 9.3064647333E-03.
  Using Symmetric Orthogonalization.

  SCF Guess: Superposition of Atomic Densities via on-the-fly atomic UHF.

  ==> Iterations <==

                           Total Energy        Delta E     RMS |[F,P]|

   @DF-RHF iter   0:  -115.55526257845466   -1.15555e+02   2.96022e-01 
   @DF-RHF iter   1:  -114.98396186783891    5.71301e-01   1.66493e-02 
   @DF-RHF iter   2:  -115.03000773437836   -4.60459e-02   5.62029e-03 DIIS
   @DF-RHF iter   3:  -115.03432405143000   -4.31632e-03   1.94975e-03 DIIS
   @DF-RHF iter   4:  -115.03524764216056   -9.23591e-04   7.71314e-04 DIIS
   @DF-RHF iter   5:  -115.03534494532336   -9.73032e-05   1.35569e-04 DIIS
   @DF-RHF iter   6:  -115.03535169088219   -6.74556e-06   2.11224e-05 DIIS
   @DF-RHF iter   7:  -115.03535188970558   -1.98823e-07   4.53047e-06 DIIS
   @DF-RHF iter   8:  -115.03535189831678   -8.61120e-09   1.25031e-06 DIIS
   @DF-RHF iter   9:  -115.03535189887684   -5.60064e-10   3.49844e-07 DIIS
   @DF-RHF iter  10:  -115.03535189893019   -5.33475e-11   2.00867e-07 DIIS
   @DF-RHF iter  11:  -115.03535189893589   -5.69855e-12   2.56085e-08 DIIS
   @DF-RHF iter  12:  -115.03535189893624   -3.55271e-13   7.66204e-09 DIIS

  ==> Post-Iterations <==

    Orbital Energies [Eh]
    ---------------------

    Doubly Occupied:                                                      

       1A    -20.555419     2A    -11.266741     3A     -1.360312  
       4A     -0.926815     5A     -0.693639     6A     -0.621105  
       7A     -0.594993     8A     -0.497248     9A     -0.443475  

    Virtual:                                                              

      10A      0.226888    11A      0.280342    12A      0.323546  
      13A      0.330825    14A      0.387568    15A      0.762313  
      16A      0.774540    17A      0.798636    18A      1.055535  
      19A      1.130965    20A      1.151592    21A      1.189171  
      22A      1.218045    23A      1.253972    24A      1.270602  
      25A      1.409694    26A      1.725182    27A      1.776919  
      28A      1.872031    29A      2.033055    30A      2.388844  
      31A      2.456666    32A      2.478232    33A      2.704903  
      34A      2.757713    35A      2.824281    36A      3.168259  
      37A      4.136044    38A      4.642603  

    Final Occupation by Irrep:
              A 
    DOCC [     9 ]

  Energy converged.

  @DF-RHF Final Energy:  -115.03535189893624

   => Energetics <=

    Nuclear Repulsion Energy =             40.7858112019436305
    One-Electron Energy =                -237.7228315908517686
    Two-Electron Energy =                  81.9016684899718967
    Total Energy =                       -115.0353518989362414



Properties will be evaluated at   0.000000,   0.000000,   0.000000 [a0]

Properties computed using the SCF density matrix

  Nuclear Dipole Moment: [e a0]
     X:    -2.0857      Y:    -0.8363      Z:     0.0421

  Electronic Dipole Moment: [e a0]
     X:     1.7175      Y:     0.2002      Z:    -0.0159

  Dipole Moment: [e a0]
     X:    -0.3682      Y:    -0.6362      Z:     0.0262     Total:     0.7355

  Dipole Moment: [D]
     X:    -0.9359      Y:    -1.6170      Z:     0.0665     Total:     1.8695


*** tstop() called on wr86 at Thu Dec  6 16:37:46 2018
Module time:
	user time   =      11.31 seconds =       0.19 minutes
	system time =       0.37 seconds =       0.01 minutes
	total time  =          1 seconds =       0.02 minutes
Total time:
	user time   =      74.78 seconds =       1.25 minutes
	system time =       3.15 seconds =       0.05 minutes
	total time  =          6 seconds =       0.10 minutes

*** tstart() called on wr86
*** at Thu Dec  6 16:37:46 2018


         ------------------------------------------------------------
                                   SCF GRAD                          
                          Rob Parrish, Justin Turney,                
                       Andy Simmonett, and Alex Sokolov              
         ------------------------------------------------------------

  ==> Geometry <==

    Molecular point group: c1
    Full point group: C1

    Geometry (in Angstrom), charge = 0, multiplicity = 1:

       Center              X                  Y                   Z               Mass       
    ------------   -----------------  -----------------  -----------------  -----------------
         C           -0.717169886130    -0.028657319471     0.004452950787    12.000000000000
         H           -1.091654645048    -0.575389660119    -0.856871948911     1.007825032070
         H           -1.113171202865     0.977927522346    -0.032401490285     1.007825032070
         H           -1.083334439362    -0.507376661483     0.908872364741     1.007825032070
         O            0.678449809566     0.077737487424    -0.006172137967    15.994914619560
         H            1.059888441827    -0.787693745388     0.025336860840     1.007825032070

  Nuclear repulsion =   40.785811201943616

  ==> Basis Set <==

  Basis Set: 6-31G(D)
    Blend: 6-31G(D)
    Number of shells: 20
    Number of basis function: 38
    Number of Cartesian functions: 38
    Spherical Harmonics?: false
    Max angular momentum: 2

  ==> DFJKGrad: Density-Fitted SCF Gradients <==

    Gradient:                    1
    J tasked:                  Yes
    K tasked:                  Yes
    wK tasked:                  No
    OpenMP threads:             16
    Integrals threads:          16
    Memory (MB):             78678
    Schwarz Cutoff:          0E+00
    Fitting Condition:       1E-12

   => Auxiliary Basis Set <=

  Basis Set: (6-31G(D) AUX)
    Blend: CC-PVDZ-JKFIT
    Number of shells: 84
    Number of basis function: 262
    Number of Cartesian functions: 262
    Spherical Harmonics?: false
    Max angular momentum: 3


  -Total Gradient:
     Atom            X                  Y                   Z
    ------   -----------------  -----------------  -----------------
       1        0.000082052578    -0.001768762800     0.000003490646
       2        0.000087864060     0.000349317934     0.000279628332
       3       -0.000209521092     0.000829846515    -0.000024675826
       4        0.000072383562     0.000307333706    -0.000254844830
       5        0.000097653371     0.000298423225    -0.000004642573
       6       -0.000130432478    -0.000016158580     0.000001044250


*** tstop() called on wr86 at Thu Dec  6 16:37:47 2018
Module time:
	user time   =      11.28 seconds =       0.19 minutes
	system time =       0.53 seconds =       0.01 minutes
	total time  =          1 seconds =       0.02 minutes
Total time:
	user time   =      86.08 seconds =       1.43 minutes
	system time =       3.68 seconds =       0.06 minutes
	total time  =          7 seconds =       0.12 minutes

  //>>>>>>>>>>>>>>>>>>>>>>>>>>>>>>>>>>>//
  //    Loading displacement 4 of 25   //
  //<<<<<<<<<<<<<<<<<<<<<<<<<<<<<<<<<<<//
gradient() will perform analytic gradient computation.

*** tstart() called on wr86
*** at Thu Dec  6 16:37:47 2018

   => Loading Basis Set <=

    Name: 6-31G(D)
    Role: ORBITAL
    Keyword: BASIS
    atoms 1      entry C          line   111 file /usr/local/hpc1/software_molmod/psi4/psi4conda/share/psi4/basis/6-31g_d_.gbs 
    atoms 2-4, 6 entry H          line    44 file /usr/local/hpc1/software_molmod/psi4/psi4conda/share/psi4/basis/6-31g_d_.gbs 
    atoms 5      entry O          line   145 file /usr/local/hpc1/software_molmod/psi4/psi4conda/share/psi4/basis/6-31g_d_.gbs 


         ---------------------------------------------------------
                                   SCF
            by Justin Turney, Rob Parrish, Andy Simmonett
                             and Daniel Smith
                              RHF Reference
                       16 Threads, 104904 MiB Core
         ---------------------------------------------------------

  ==> Geometry <==

    Molecular point group: c1
    Full point group: C1

    Geometry (in Angstrom), charge = 0, multiplicity = 1:

       Center              X                  Y                   Z               Mass       
    ------------   -----------------  -----------------  -----------------  -----------------
         C           -0.717169886130    -0.027786069545     0.004451704883    12.000000000000
         H           -1.090988638874    -0.577607075723    -0.856879396217     1.007825032070
         H           -1.114246651709     0.975676445048    -0.032392805855     1.007825032070
         H           -1.082746976302    -0.509603170763     0.908865636031     1.007825032070
         O            0.678381798746     0.077494082898    -0.006170429595    15.994914619560
         H            1.060789802495    -0.787509560360     0.025330074098     1.007825032070

  Running in c1 symmetry.

  Rotational constants: A =      4.37260  B =      0.84796  C =      0.81879 [cm^-1]
  Rotational constants: A = 131087.12036  B =  25421.15752  C =  24546.59246 [MHz]
  Nuclear repulsion =   40.786955515244472

  Charge       = 0
  Multiplicity = 1
  Electrons    = 18
  Nalpha       = 9
  Nbeta        = 9

  ==> Algorithm <==

  SCF Algorithm Type is DF.
  DIIS enabled.
  MOM disabled.
  Fractional occupation disabled.
  Guess Type is SAD.
  Energy threshold   = 1.00e-08
  Density threshold  = 1.00e-08
  Integral threshold = 0.00e+00

  ==> Primary Basis <==

  Basis Set: 6-31G(D)
    Blend: 6-31G(D)
    Number of shells: 20
    Number of basis function: 38
    Number of Cartesian functions: 38
    Spherical Harmonics?: false
    Max angular momentum: 2

   => Loading Basis Set <=

    Name: (6-31G(D) AUX)
    Role: JKFIT
    Keyword: DF_BASIS_SCF
    atoms 1      entry C          line   121 file /usr/local/hpc1/software_molmod/psi4/psi4conda/share/psi4/basis/cc-pvdz-jkfit.gbs 
    atoms 2-4, 6 entry H          line    51 file /usr/local/hpc1/software_molmod/psi4/psi4conda/share/psi4/basis/cc-pvdz-jkfit.gbs 
    atoms 5      entry O          line   221 file /usr/local/hpc1/software_molmod/psi4/psi4conda/share/psi4/basis/cc-pvdz-jkfit.gbs 

  ==> Pre-Iterations <==

   -------------------------------------------------------
    Irrep   Nso     Nmo     Nalpha   Nbeta   Ndocc  Nsocc
   -------------------------------------------------------
     A         38      38       0       0       0       0
   -------------------------------------------------------
    Total      38      38       9       9       9       0
   -------------------------------------------------------

  ==> Integral Setup <==

  ==> DiskDFJK: Density-Fitted J/K Matrices <==

    J tasked:                  Yes
    K tasked:                  Yes
    wK tasked:                  No
    OpenMP threads:             16
    Integrals threads:          16
    Memory (MB):             78678
    Algorithm:                Core
    Integral Cache:           NONE
    Schwarz Cutoff:          1E-12
    Fitting Condition:       1E-12

   => Auxiliary Basis Set <=

  Basis Set: (6-31G(D) AUX)
    Blend: CC-PVDZ-JKFIT
    Number of shells: 84
    Number of basis function: 262
    Number of Cartesian functions: 262
    Spherical Harmonics?: false
    Max angular momentum: 3

  Minimum eigenvalue in the overlap matrix is 9.3044167087E-03.
  Using Symmetric Orthogonalization.

  SCF Guess: Superposition of Atomic Densities via on-the-fly atomic UHF.

  ==> Iterations <==

                           Total Energy        Delta E     RMS |[F,P]|

   @DF-RHF iter   0:  -115.48270918061627   -1.15483e+02   1.58838e-01 
   @DF-RHF iter   1:  -114.99388251545615    4.88827e-01   1.74989e-02 
   @DF-RHF iter   2:  -115.03093300714278   -3.70505e-02   5.09400e-03 DIIS
   @DF-RHF iter   3:  -115.03451640389335   -3.58340e-03   1.71606e-03 DIIS
   @DF-RHF iter   4:  -115.03524227659108   -7.25873e-04   9.30164e-04 DIIS
   @DF-RHF iter   5:  -115.03534072472220   -9.84481e-05   2.06738e-04 DIIS
   @DF-RHF iter   6:  -115.03535121485186   -1.04901e-05   5.68671e-05 DIIS
   @DF-RHF iter   7:  -115.03535184416702   -6.29315e-07   1.18684e-05 DIIS
   @DF-RHF iter   8:  -115.03535190200620   -5.78392e-08   2.70968e-06 DIIS
   @DF-RHF iter   9:  -115.03535190477972   -2.77352e-09   4.45695e-07 DIIS
   @DF-RHF iter  10:  -115.03535190488358   -1.03867e-10   2.22579e-07 DIIS
   @DF-RHF iter  11:  -115.03535190488959   -6.01119e-12   2.16720e-08 DIIS
   @DF-RHF iter  12:  -115.03535190488995   -3.55271e-13   4.95750e-09 DIIS

  ==> Post-Iterations <==

    Orbital Energies [Eh]
    ---------------------

    Doubly Occupied:                                                      

       1A    -20.555333     2A    -11.266779     3A     -1.360270  
       4A     -0.926882     5A     -0.693613     6A     -0.620592  
       7A     -0.595683     8A     -0.497441     9A     -0.443107  

    Virtual:                                                              

      10A      0.226811    11A      0.280366    12A      0.324109  
      13A      0.330394    14A      0.387593    15A      0.762350  
      16A      0.774457    17A      0.798672    18A      1.055554  
      19A      1.129748    20A      1.152218    21A      1.189953  
      22A      1.218285    23A      1.253667    24A      1.270291  
      25A      1.409996    26A      1.725275    27A      1.776456  
      28A      1.872932    29A      2.032911    30A      2.387850  
      31A      2.456630    32A      2.479194    33A      2.706119  
      34A      2.756516    35A      2.824724    36A      3.168170  
      37A      4.136296    38A      4.642623  

    Final Occupation by Irrep:
              A 
    DOCC [     9 ]

  Energy converged.

  @DF-RHF Final Energy:  -115.03535190488995

   => Energetics <=

    Nuclear Repulsion Energy =             40.7869555152444718
    One-Electron Energy =                -237.7252149355481947
    Two-Electron Energy =                  81.9029075154137729
    Total Energy =                       -115.0353519048899500



Properties will be evaluated at   0.000000,   0.000000,   0.000000 [a0]

Properties computed using the SCF density matrix

  Nuclear Dipole Moment: [e a0]
     X:    -2.0847      Y:    -0.8425      Z:     0.0421

  Electronic Dipole Moment: [e a0]
     X:     1.7172      Y:     0.2079      Z:    -0.0159

  Dipole Moment: [e a0]
     X:    -0.3675      Y:    -0.6346      Z:     0.0262     Total:     0.7338

  Dipole Moment: [D]
     X:    -0.9341      Y:    -1.6129      Z:     0.0666     Total:     1.8651


*** tstop() called on wr86 at Thu Dec  6 16:37:48 2018
Module time:
	user time   =      11.33 seconds =       0.19 minutes
	system time =       0.44 seconds =       0.01 minutes
	total time  =          1 seconds =       0.02 minutes
Total time:
	user time   =      97.54 seconds =       1.63 minutes
	system time =       4.13 seconds =       0.07 minutes
	total time  =          8 seconds =       0.13 minutes

*** tstart() called on wr86
*** at Thu Dec  6 16:37:48 2018


         ------------------------------------------------------------
                                   SCF GRAD                          
                          Rob Parrish, Justin Turney,                
                       Andy Simmonett, and Alex Sokolov              
         ------------------------------------------------------------

  ==> Geometry <==

    Molecular point group: c1
    Full point group: C1

    Geometry (in Angstrom), charge = 0, multiplicity = 1:

       Center              X                  Y                   Z               Mass       
    ------------   -----------------  -----------------  -----------------  -----------------
         C           -0.717169886130    -0.027786069545     0.004451704883    12.000000000000
         H           -1.090988638874    -0.577607075723    -0.856879396217     1.007825032070
         H           -1.114246651709     0.975676445048    -0.032392805855     1.007825032070
         H           -1.082746976302    -0.509603170763     0.908865636031     1.007825032070
         O            0.678381798746     0.077494082898    -0.006170429595    15.994914619560
         H            1.060789802495    -0.787509560360     0.025330074098     1.007825032070

  Nuclear repulsion =   40.786955515244472

  ==> Basis Set <==

  Basis Set: 6-31G(D)
    Blend: 6-31G(D)
    Number of shells: 20
    Number of basis function: 38
    Number of Cartesian functions: 38
    Spherical Harmonics?: false
    Max angular momentum: 2

  ==> DFJKGrad: Density-Fitted SCF Gradients <==

    Gradient:                    1
    J tasked:                  Yes
    K tasked:                  Yes
    wK tasked:                  No
    OpenMP threads:             16
    Integrals threads:          16
    Memory (MB):             78678
    Schwarz Cutoff:          0E+00
    Fitting Condition:       1E-12

   => Auxiliary Basis Set <=

  Basis Set: (6-31G(D) AUX)
    Blend: CC-PVDZ-JKFIT
    Number of shells: 84
    Number of basis function: 262
    Number of Cartesian functions: 262
    Spherical Harmonics?: false
    Max angular momentum: 3


  -Total Gradient:
     Atom            X                  Y                   Z
    ------   -----------------  -----------------  -----------------
       1       -0.000077676654     0.001771181579    -0.000006552693
       2       -0.000085070547    -0.000346050322    -0.000278096860
       3        0.000209253692    -0.000834295639     0.000024824801
       4       -0.000071591571    -0.000305666504     0.000256360311
       5       -0.000106738050    -0.000299400025     0.000004813300
       6        0.000131823130     0.000014230910    -0.000001348860


*** tstop() called on wr86 at Thu Dec  6 16:37:48 2018
Module time:
	user time   =      10.45 seconds =       0.17 minutes
	system time =       0.43 seconds =       0.01 minutes
	total time  =          0 seconds =       0.00 minutes
Total time:
	user time   =     108.01 seconds =       1.80 minutes
	system time =       4.57 seconds =       0.08 minutes
	total time  =          8 seconds =       0.13 minutes

  //>>>>>>>>>>>>>>>>>>>>>>>>>>>>>>>>>>>//
  //    Loading displacement 5 of 25   //
  //<<<<<<<<<<<<<<<<<<<<<<<<<<<<<<<<<<<//
gradient() will perform analytic gradient computation.

*** tstart() called on wr86
*** at Thu Dec  6 16:37:48 2018

   => Loading Basis Set <=

    Name: 6-31G(D)
    Role: ORBITAL
    Keyword: BASIS
    atoms 1      entry C          line   111 file /usr/local/hpc1/software_molmod/psi4/psi4conda/share/psi4/basis/6-31g_d_.gbs 
    atoms 2-4, 6 entry H          line    44 file /usr/local/hpc1/software_molmod/psi4/psi4conda/share/psi4/basis/6-31g_d_.gbs 
    atoms 5      entry O          line   145 file /usr/local/hpc1/software_molmod/psi4/psi4conda/share/psi4/basis/6-31g_d_.gbs 


         ---------------------------------------------------------
                                   SCF
            by Justin Turney, Rob Parrish, Andy Simmonett
                             and Daniel Smith
                              RHF Reference
                       16 Threads, 104904 MiB Core
         ---------------------------------------------------------

  ==> Geometry <==

    Molecular point group: c1
    Full point group: C1

    Geometry (in Angstrom), charge = 0, multiplicity = 1:

       Center              X                  Y                   Z               Mass       
    ------------   -----------------  -----------------  -----------------  -----------------
         C           -0.717169886130    -0.028221694508     0.004024365094    12.000000000000
         H           -1.091825656369    -0.576554711980    -0.855682607177     1.007825032070
         H           -1.113725217397     0.976801924750    -0.031296879353     1.007825032070
         H           -1.082504345618    -0.508425788905     0.910052546641     1.007825032070
         O            0.678413817599     0.077615228783    -0.006065492670    15.994914619560
         H            1.060354592564    -0.787600546958     0.025273284440     1.007825032070

  Running in c1 symmetry.

  Rotational constants: A =      4.37213  B =      0.84796  C =      0.81877 [cm^-1]
  Rotational constants: A = 131073.26447  B =  25421.16075  C =  24546.12433 [MHz]
  Nuclear repulsion =   40.786440137099937

  Charge       = 0
  Multiplicity = 1
  Electrons    = 18
  Nalpha       = 9
  Nbeta        = 9

  ==> Algorithm <==

  SCF Algorithm Type is DF.
  DIIS enabled.
  MOM disabled.
  Fractional occupation disabled.
  Guess Type is SAD.
  Energy threshold   = 1.00e-08
  Density threshold  = 1.00e-08
  Integral threshold = 0.00e+00

  ==> Primary Basis <==

  Basis Set: 6-31G(D)
    Blend: 6-31G(D)
    Number of shells: 20
    Number of basis function: 38
    Number of Cartesian functions: 38
    Spherical Harmonics?: false
    Max angular momentum: 2

   => Loading Basis Set <=

    Name: (6-31G(D) AUX)
    Role: JKFIT
    Keyword: DF_BASIS_SCF
    atoms 1      entry C          line   121 file /usr/local/hpc1/software_molmod/psi4/psi4conda/share/psi4/basis/cc-pvdz-jkfit.gbs 
    atoms 2-4, 6 entry H          line    51 file /usr/local/hpc1/software_molmod/psi4/psi4conda/share/psi4/basis/cc-pvdz-jkfit.gbs 
    atoms 5      entry O          line   221 file /usr/local/hpc1/software_molmod/psi4/psi4conda/share/psi4/basis/cc-pvdz-jkfit.gbs 

  ==> Pre-Iterations <==

   -------------------------------------------------------
    Irrep   Nso     Nmo     Nalpha   Nbeta   Ndocc  Nsocc
   -------------------------------------------------------
     A         38      38       0       0       0       0
   -------------------------------------------------------
    Total      38      38       9       9       9       0
   -------------------------------------------------------

  ==> Integral Setup <==

  ==> DiskDFJK: Density-Fitted J/K Matrices <==

    J tasked:                  Yes
    K tasked:                  Yes
    wK tasked:                  No
    OpenMP threads:             16
    Integrals threads:          16
    Memory (MB):             78678
    Algorithm:                Core
    Integral Cache:           NONE
    Schwarz Cutoff:          1E-12
    Fitting Condition:       1E-12

   => Auxiliary Basis Set <=

  Basis Set: (6-31G(D) AUX)
    Blend: CC-PVDZ-JKFIT
    Number of shells: 84
    Number of basis function: 262
    Number of Cartesian functions: 262
    Spherical Harmonics?: false
    Max angular momentum: 3

  Minimum eigenvalue in the overlap matrix is 9.3053839729E-03.
  Using Symmetric Orthogonalization.

  SCF Guess: Superposition of Atomic Densities via on-the-fly atomic UHF.

  ==> Iterations <==

                           Total Energy        Delta E     RMS |[F,P]|

   @DF-RHF iter   0:  -115.56930526661918   -1.15569e+02   2.11993e-01 
   @DF-RHF iter   1:  -114.94782040800887    6.21485e-01   3.18076e-02 
   @DF-RHF iter   2:  -115.01521342526581   -6.73930e-02   1.59329e-02 DIIS
   @DF-RHF iter   3:  -115.03336702141456   -1.81536e-02   2.94074e-03 DIIS
   @DF-RHF iter   4:  -115.03522771138819   -1.86069e-03   7.28254e-04 DIIS
   @DF-RHF iter   5:  -115.03534132187062   -1.13610e-04   1.82221e-04 DIIS
   @DF-RHF iter   6:  -115.03535140796393   -1.00861e-05   4.85433e-05 DIIS
   @DF-RHF iter   7:  -115.03535196800624   -5.60042e-07   8.26697e-06 DIIS
   @DF-RHF iter   8:  -115.03535199775608   -2.97498e-08   1.80753e-06 DIIS
   @DF-RHF iter   9:  -115.03535199911833   -1.36225e-09   3.56653e-07 DIIS
   @DF-RHF iter  10:  -115.03535199917829   -5.99556e-11   1.27733e-07 DIIS
   @DF-RHF iter  11:  -115.03535199918110   -2.81375e-12   2.06497e-08 DIIS
   @DF-RHF iter  12:  -115.03535199918136   -2.55795e-13   4.48824e-09 DIIS

  ==> Post-Iterations <==

    Orbital Energies [Eh]
    ---------------------

    Doubly Occupied:                                                      

       1A    -20.555375     2A    -11.266761     3A     -1.360292  
       4A     -0.926849     5A     -0.693628     6A     -0.620838  
       7A     -0.595350     8A     -0.497350     9A     -0.443283  

    Virtual:                                                              

      10A      0.226848    11A      0.280354    12A      0.323833  
      13A      0.330606    14A      0.387582    15A      0.762335  
      16A      0.774494    17A      0.798657    18A      1.055543  
      19A      1.130327    20A      1.151920    21A      1.189585  
      22A      1.218164    23A      1.253809    24A      1.270446  
      25A      1.409850    26A      1.725230    27A      1.776679  
      28A      1.872499    29A      2.032979    30A      2.388323  
      31A      2.456648    32A      2.478737    33A      2.705522  
      34A      2.757109    35A      2.824510    36A      3.168215  
      37A      4.136176    38A      4.642613  

    Final Occupation by Irrep:
              A 
    DOCC [     9 ]

  Energy converged.

  @DF-RHF Final Energy:  -115.03535199918136

   => Energetics <=

    Nuclear Repulsion Energy =             40.7864401370999374
    One-Electron Energy =                -237.7241329056123504
    Two-Electron Energy =                  81.9023407693310617
    Total Energy =                       -115.0353519991813585



Properties will be evaluated at   0.000000,   0.000000,   0.000000 [a0]

Properties computed using the SCF density matrix

  Nuclear Dipole Moment: [e a0]
     X:    -2.0851      Y:    -0.8394      Z:     0.0453

  Electronic Dipole Moment: [e a0]
     X:     1.7173      Y:     0.2040      Z:    -0.0202

  Dipole Moment: [e a0]
     X:    -0.3678      Y:    -0.6354      Z:     0.0251     Total:     0.7346

  Dipole Moment: [D]
     X:    -0.9349      Y:    -1.6150      Z:     0.0637     Total:     1.8672


*** tstop() called on wr86 at Thu Dec  6 16:37:49 2018
Module time:
	user time   =      11.28 seconds =       0.19 minutes
	system time =       0.43 seconds =       0.01 minutes
	total time  =          1 seconds =       0.02 minutes
Total time:
	user time   =     119.42 seconds =       1.99 minutes
	system time =       5.00 seconds =       0.08 minutes
	total time  =          9 seconds =       0.15 minutes

*** tstart() called on wr86
*** at Thu Dec  6 16:37:49 2018


         ------------------------------------------------------------
                                   SCF GRAD                          
                          Rob Parrish, Justin Turney,                
                       Andy Simmonett, and Alex Sokolov              
         ------------------------------------------------------------

  ==> Geometry <==

    Molecular point group: c1
    Full point group: C1

    Geometry (in Angstrom), charge = 0, multiplicity = 1:

       Center              X                  Y                   Z               Mass       
    ------------   -----------------  -----------------  -----------------  -----------------
         C           -0.717169886130    -0.028221694508     0.004024365094    12.000000000000
         H           -1.091825656369    -0.576554711980    -0.855682607177     1.007825032070
         H           -1.113725217397     0.976801924750    -0.031296879353     1.007825032070
         H           -1.082504345618    -0.508425788905     0.910052546641     1.007825032070
         O            0.678413817599     0.077615228783    -0.006065492670    15.994914619560
         H            1.060354592564    -0.787600546958     0.025273284440     1.007825032070

  Nuclear repulsion =   40.786440137099937

  ==> Basis Set <==

  Basis Set: 6-31G(D)
    Blend: 6-31G(D)
    Number of shells: 20
    Number of basis function: 38
    Number of Cartesian functions: 38
    Spherical Harmonics?: false
    Max angular momentum: 2

  ==> DFJKGrad: Density-Fitted SCF Gradients <==

    Gradient:                    1
    J tasked:                  Yes
    K tasked:                  Yes
    wK tasked:                  No
    OpenMP threads:             16
    Integrals threads:          16
    Memory (MB):             78678
    Schwarz Cutoff:          0E+00
    Fitting Condition:       1E-12

   => Auxiliary Basis Set <=

  Basis Set: (6-31G(D) AUX)
    Blend: CC-PVDZ-JKFIT
    Number of shells: 84
    Number of basis function: 262
    Number of Cartesian functions: 262
    Spherical Harmonics?: false
    Max angular momentum: 3


  -Total Gradient:
     Atom            X                  Y                   Z
    ------   -----------------  -----------------  -----------------
       1       -0.000005030171    -0.000003052198    -0.001663461391
       2        0.000160208152     0.000287741437     0.000630874140
       3        0.000006090766    -0.000023204847     0.000168094263
       4       -0.000157480289    -0.000256931352     0.000672263020
       5       -0.000009250937    -0.000004182959     0.000192415852
       6        0.000005462479    -0.000000370081    -0.000000185884


*** tstop() called on wr86 at Thu Dec  6 16:37:50 2018
Module time:
	user time   =      10.37 seconds =       0.17 minutes
	system time =       0.51 seconds =       0.01 minutes
	total time  =          1 seconds =       0.02 minutes
Total time:
	user time   =     129.81 seconds =       2.16 minutes
	system time =       5.52 seconds =       0.09 minutes
	total time  =         10 seconds =       0.17 minutes

  //>>>>>>>>>>>>>>>>>>>>>>>>>>>>>>>>>>>//
  //    Loading displacement 6 of 25   //
  //<<<<<<<<<<<<<<<<<<<<<<<<<<<<<<<<<<<//
gradient() will perform analytic gradient computation.

*** tstart() called on wr86
*** at Thu Dec  6 16:37:50 2018

   => Loading Basis Set <=

    Name: 6-31G(D)
    Role: ORBITAL
    Keyword: BASIS
    atoms 1      entry C          line   111 file /usr/local/hpc1/software_molmod/psi4/psi4conda/share/psi4/basis/6-31g_d_.gbs 
    atoms 2-4, 6 entry H          line    44 file /usr/local/hpc1/software_molmod/psi4/psi4conda/share/psi4/basis/6-31g_d_.gbs 
    atoms 5      entry O          line   145 file /usr/local/hpc1/software_molmod/psi4/psi4conda/share/psi4/basis/6-31g_d_.gbs 


         ---------------------------------------------------------
                                   SCF
            by Justin Turney, Rob Parrish, Andy Simmonett
                             and Daniel Smith
                              RHF Reference
                       16 Threads, 104904 MiB Core
         ---------------------------------------------------------

  ==> Geometry <==

    Molecular point group: c1
    Full point group: C1

    Geometry (in Angstrom), charge = 0, multiplicity = 1:

       Center              X                  Y                   Z               Mass       
    ------------   -----------------  -----------------  -----------------  -----------------
         C           -0.717169886130    -0.028221694508     0.004880290576    12.000000000000
         H           -1.090817627553    -0.576442023862    -0.858068737951     1.007825032070
         H           -1.113692637177     0.976802042644    -0.033497416787     1.007825032070
         H           -1.083577070046    -0.508554043341     0.907685454130     1.007825032070
         O            0.678417790713     0.077616341539    -0.006277074892    15.994914619560
         H            1.060323651758    -0.787602758790     0.025393650498     1.007825032070

  Running in c1 symmetry.

  Rotational constants: A =      4.37210  B =      0.84795  C =      0.81876 [cm^-1]
  Rotational constants: A = 131072.18130  B =  25421.01448  C =  24545.94994 [MHz]
  Nuclear repulsion =   40.786326935700480

  Charge       = 0
  Multiplicity = 1
  Electrons    = 18
  Nalpha       = 9
  Nbeta        = 9

  ==> Algorithm <==

  SCF Algorithm Type is DF.
  DIIS enabled.
  MOM disabled.
  Fractional occupation disabled.
  Guess Type is SAD.
  Energy threshold   = 1.00e-08
  Density threshold  = 1.00e-08
  Integral threshold = 0.00e+00

  ==> Primary Basis <==

  Basis Set: 6-31G(D)
    Blend: 6-31G(D)
    Number of shells: 20
    Number of basis function: 38
    Number of Cartesian functions: 38
    Spherical Harmonics?: false
    Max angular momentum: 2

   => Loading Basis Set <=

    Name: (6-31G(D) AUX)
    Role: JKFIT
    Keyword: DF_BASIS_SCF
    atoms 1      entry C          line   121 file /usr/local/hpc1/software_molmod/psi4/psi4conda/share/psi4/basis/cc-pvdz-jkfit.gbs 
    atoms 2-4, 6 entry H          line    51 file /usr/local/hpc1/software_molmod/psi4/psi4conda/share/psi4/basis/cc-pvdz-jkfit.gbs 
    atoms 5      entry O          line   221 file /usr/local/hpc1/software_molmod/psi4/psi4conda/share/psi4/basis/cc-pvdz-jkfit.gbs 

  ==> Pre-Iterations <==

   -------------------------------------------------------
    Irrep   Nso     Nmo     Nalpha   Nbeta   Ndocc  Nsocc
   -------------------------------------------------------
     A         38      38       0       0       0       0
   -------------------------------------------------------
    Total      38      38       9       9       9       0
   -------------------------------------------------------

  ==> Integral Setup <==

  ==> DiskDFJK: Density-Fitted J/K Matrices <==

    J tasked:                  Yes
    K tasked:                  Yes
    wK tasked:                  No
    OpenMP threads:             16
    Integrals threads:          16
    Memory (MB):             78678
    Algorithm:                Core
    Integral Cache:           NONE
    Schwarz Cutoff:          1E-12
    Fitting Condition:       1E-12

   => Auxiliary Basis Set <=

  Basis Set: (6-31G(D) AUX)
    Blend: CC-PVDZ-JKFIT
    Number of shells: 84
    Number of basis function: 262
    Number of Cartesian functions: 262
    Spherical Harmonics?: false
    Max angular momentum: 3

  Minimum eigenvalue in the overlap matrix is 9.3054929800E-03.
  Using Symmetric Orthogonalization.

  SCF Guess: Superposition of Atomic Densities via on-the-fly atomic UHF.

  ==> Iterations <==

                           Total Energy        Delta E     RMS |[F,P]|

   @DF-RHF iter   0:  -115.55588728369999   -1.15556e+02   1.58080e-01 
   @DF-RHF iter   1:  -114.98085887150354    5.75028e-01   1.43411e-02 
   @DF-RHF iter   2:  -115.02974883834295   -4.88900e-02   5.03292e-03 DIIS
   @DF-RHF iter   3:  -115.03428486948353   -4.53603e-03   2.19167e-03 DIIS
   @DF-RHF iter   4:  -115.03523979568020   -9.54926e-04   1.30372e-03 DIIS
   @DF-RHF iter   5:  -115.03534410913299   -1.04313e-04   1.44881e-04 DIIS
   @DF-RHF iter   6:  -115.03535176130373   -7.65217e-06   2.83766e-05 DIIS
   @DF-RHF iter   7:  -115.03535199238092   -2.31077e-07   5.32530e-06 DIIS
   @DF-RHF iter   8:  -115.03535200330103   -1.09201e-08   2.18244e-06 DIIS
   @DF-RHF iter   9:  -115.03535200434010   -1.03907e-09   4.52089e-07 DIIS
   @DF-RHF iter  10:  -115.03535200442806   -8.79652e-11   1.99431e-07 DIIS
   @DF-RHF iter  11:  -115.03535200443616   -8.10019e-12   2.27816e-08 DIIS
   @DF-RHF iter  12:  -115.03535200443639   -2.27374e-13   3.50664e-09 DIIS

  ==> Post-Iterations <==

    Orbital Energies [Eh]
    ---------------------

    Doubly Occupied:                                                      

       1A    -20.555377     2A    -11.266759     3A     -1.360290  
       4A     -0.926848     5A     -0.693627     6A     -0.620857  
       7A     -0.595323     8A     -0.497343     9A     -0.443297  

    Virtual:                                                              

      10A      0.226851    11A      0.280354    12A      0.323812  
      13A      0.330622    14A      0.387579    15A      0.762333  
      16A      0.774496    17A      0.798653    18A      1.055544  
      19A      1.130375    20A      1.151896    21A      1.189556  
      22A      1.218157    23A      1.253821    24A      1.270458  
      25A      1.409839    26A      1.725226    27A      1.776695  
      28A      1.872465    29A      2.032987    30A      2.388361  
      31A      2.456646    32A      2.478704    33A      2.705471  
      34A      2.757147    35A      2.824493    36A      3.168215  
      37A      4.136164    38A      4.642614  

    Final Occupation by Irrep:
              A 
    DOCC [     9 ]

  Energy converged.

  @DF-RHF Final Energy:  -115.03535200443639

   => Energetics <=

    Nuclear Repulsion Energy =             40.7863269357004796
    One-Electron Energy =                -237.7239135346062540
    Two-Electron Energy =                  81.9022345944693768
    Total Energy =                       -115.0353520044363904



Properties will be evaluated at   0.000000,   0.000000,   0.000000 [a0]

Properties computed using the SCF density matrix

  Nuclear Dipole Moment: [e a0]
     X:    -2.0852      Y:    -0.8394      Z:     0.0389

  Electronic Dipole Moment: [e a0]
     X:     1.7173      Y:     0.2040      Z:    -0.0116

  Dipole Moment: [e a0]
     X:    -0.3679      Y:    -0.6354      Z:     0.0273     Total:     0.7347

  Dipole Moment: [D]
     X:    -0.9350      Y:    -1.6149      Z:     0.0693     Total:     1.8674


*** tstop() called on wr86 at Thu Dec  6 16:37:51 2018
Module time:
	user time   =      11.27 seconds =       0.19 minutes
	system time =       0.37 seconds =       0.01 minutes
	total time  =          1 seconds =       0.02 minutes
Total time:
	user time   =     141.18 seconds =       2.35 minutes
	system time =       5.90 seconds =       0.10 minutes
	total time  =         11 seconds =       0.18 minutes

*** tstart() called on wr86
*** at Thu Dec  6 16:37:51 2018


         ------------------------------------------------------------
                                   SCF GRAD                          
                          Rob Parrish, Justin Turney,                
                       Andy Simmonett, and Alex Sokolov              
         ------------------------------------------------------------

  ==> Geometry <==

    Molecular point group: c1
    Full point group: C1

    Geometry (in Angstrom), charge = 0, multiplicity = 1:

       Center              X                  Y                   Z               Mass       
    ------------   -----------------  -----------------  -----------------  -----------------
         C           -0.717169886130    -0.028221694508     0.004880290576    12.000000000000
         H           -1.090817627553    -0.576442023862    -0.858068737951     1.007825032070
         H           -1.113692637177     0.976802042644    -0.033497416787     1.007825032070
         H           -1.083577070046    -0.508554043341     0.907685454130     1.007825032070
         O            0.678417790713     0.077616341539    -0.006277074892    15.994914619560
         H            1.060323651758    -0.787602758790     0.025393650498     1.007825032070

  Nuclear repulsion =   40.786326935700480

  ==> Basis Set <==

  Basis Set: 6-31G(D)
    Blend: 6-31G(D)
    Number of shells: 20
    Number of basis function: 38
    Number of Cartesian functions: 38
    Spherical Harmonics?: false
    Max angular momentum: 2

  ==> DFJKGrad: Density-Fitted SCF Gradients <==

    Gradient:                    1
    J tasked:                  Yes
    K tasked:                  Yes
    wK tasked:                  No
    OpenMP threads:             16
    Integrals threads:          16
    Memory (MB):             78678
    Schwarz Cutoff:          0E+00
    Fitting Condition:       1E-12

   => Auxiliary Basis Set <=

  Basis Set: (6-31G(D) AUX)
    Blend: CC-PVDZ-JKFIT
    Number of shells: 84
[...]
    atoms 5      entry O          line   221 file /usr/local/hpc1/software_molmod/psi4/psi4conda/share/psi4/basis/cc-pvdz-jkfit.gbs 

  ==> Pre-Iterations <==

   -------------------------------------------------------
    Irrep   Nso     Nmo     Nalpha   Nbeta   Ndocc  Nsocc
   -------------------------------------------------------
     A         38      38       0       0       0       0
   -------------------------------------------------------
    Total      38      38       9       9       9       0
   -------------------------------------------------------

  ==> Integral Setup <==

  ==> DiskDFJK: Density-Fitted J/K Matrices <==

    J tasked:                  Yes
    K tasked:                  Yes
    wK tasked:                  No
    OpenMP threads:             16
    Integrals threads:          16
    Memory (MB):             78678
    Algorithm:                Core
    Integral Cache:           NONE
    Schwarz Cutoff:          1E-12
    Fitting Condition:       1E-12

   => Auxiliary Basis Set <=

  Basis Set: (6-31G(D) AUX)
    Blend: CC-PVDZ-JKFIT
    Number of shells: 84
    Number of basis function: 262
    Number of Cartesian functions: 262
    Spherical Harmonics?: false
    Max angular momentum: 3

  Minimum eigenvalue in the overlap matrix is 9.3054314398E-03.
  Using Symmetric Orthogonalization.

  SCF Guess: Superposition of Atomic Densities via on-the-fly atomic UHF.

  ==> Iterations <==

                           Total Energy        Delta E     RMS |[F,P]|

   @DF-RHF iter   0:  -115.67930483345189   -1.15679e+02   1.52989e-01 
   @DF-RHF iter   1:  -114.97364455733768    7.05660e-01   2.04740e-02 
   @DF-RHF iter   2:  -115.02733625295204   -5.36917e-02   8.58617e-03 DIIS
   @DF-RHF iter   3:  -115.03390638590618   -6.57013e-03   4.19178e-03 DIIS
   @DF-RHF iter   4:  -115.03523907332053   -1.33269e-03   6.61841e-04 DIIS
   @DF-RHF iter   5:  -115.03534678137964   -1.07708e-04   1.67645e-04 DIIS
   @DF-RHF iter   6:  -115.03535364730058   -6.86592e-06   4.87906e-05 DIIS
   @DF-RHF iter   7:  -115.03535410317174   -4.55871e-07   1.03581e-05 DIIS
   @DF-RHF iter   8:  -115.03535414143286   -3.82611e-08   1.88428e-06 DIIS
   @DF-RHF iter   9:  -115.03535414345964   -2.02678e-09   2.81876e-07 DIIS
   @DF-RHF iter  10:  -115.03535414350645   -4.68106e-11   9.59124e-08 DIIS
   @DF-RHF iter  11:  -115.03535414350917   -2.71427e-12   1.91820e-08 DIIS
   @DF-RHF iter  12:  -115.03535414350924   -7.10543e-14   4.11319e-09 DIIS

  ==> Post-Iterations <==

    Orbital Energies [Eh]
    ---------------------

    Doubly Occupied:                                                      

       1A    -20.555376     2A    -11.266760     3A     -1.360291  
       4A     -0.926848     5A     -0.693626     6A     -0.620848  
       7A     -0.595337     8A     -0.497346     9A     -0.443292  

    Virtual:                                                              

      10A      0.226850    11A      0.280354    12A      0.323828  
      13A      0.330610    14A      0.387580    15A      0.762333  
      16A      0.774498    17A      0.798653    18A      1.055546  
      19A      1.130357    20A      1.151906    21A      1.189568  
      22A      1.218156    23A      1.253819    24A      1.270445  
      25A      1.409844    26A      1.725228    27A      1.776687  
      28A      1.872481    29A      2.032983    30A      2.388348  
      31A      2.456651    32A      2.478718    33A      2.705508  
      34A      2.757115    35A      2.824501    36A      3.168215  
      37A      4.136170    38A      4.642613  

    Final Occupation by Irrep:
              A 
    DOCC [     9 ]

  Energy converged.

  @DF-RHF Final Energy:  -115.03535414350924

   => Energetics <=

    Nuclear Repulsion Energy =             40.7863870532766057
    One-Electron Energy =                -237.7240366892165468
    Two-Electron Energy =                  81.9022954924307101
    Total Energy =                       -115.0353541435092382



Properties will be evaluated at   0.000000,   0.000000,   0.000000 [a0]

Properties computed using the SCF density matrix

  Nuclear Dipole Moment: [e a0]
     X:    -2.0852      Y:    -0.8394      Z:     0.0421

  Electronic Dipole Moment: [e a0]
     X:     1.7173      Y:     0.2040      Z:    -0.0159

  Dipole Moment: [e a0]
     X:    -0.3678      Y:    -0.6354      Z:     0.0262     Total:     0.7346

  Dipole Moment: [D]
     X:    -0.9350      Y:    -1.6150      Z:     0.0665     Total:     1.8673


*** tstop() called on wr86 at Thu Dec  6 16:38:21 2018
Module time:
	user time   =      11.41 seconds =       0.19 minutes
	system time =       0.46 seconds =       0.01 minutes
	total time  =          1 seconds =       0.02 minutes
Total time:
	user time   =     558.36 seconds =       9.31 minutes
	system time =      23.27 seconds =       0.39 minutes
	total time  =         41 seconds =       0.68 minutes

*** tstart() called on wr86
*** at Thu Dec  6 16:38:21 2018


         ------------------------------------------------------------
                                   SCF GRAD                          
                          Rob Parrish, Justin Turney,                
                       Andy Simmonett, and Alex Sokolov              
         ------------------------------------------------------------

  ==> Geometry <==

    Molecular point group: c1
    Full point group: C1

    Geometry (in Angstrom), charge = 0, multiplicity = 1:

       Center              X                  Y                   Z               Mass       
    ------------   -----------------  -----------------  -----------------  -----------------
         C           -0.717169886130    -0.028221694508     0.004452327835    12.000000000000
         H           -1.091321641961    -0.576498367921    -0.856875672564     1.007825032070
         H           -1.113708927287     0.976801983697    -0.032397148070     1.007825032070
         H           -1.083040707832    -0.508489916123     0.908869000386     1.007825032070
         O            0.678415804156     0.077615785161    -0.006171283781    15.994914619560
         H            1.060339122161    -0.787601652874     0.025333467469     1.007825032070

  Nuclear repulsion =   40.786387053276606

  ==> Basis Set <==

  Basis Set: 6-31G(D)
    Blend: 6-31G(D)
    Number of shells: 20
    Number of basis function: 38
    Number of Cartesian functions: 38
    Spherical Harmonics?: false
    Max angular momentum: 2

  ==> DFJKGrad: Density-Fitted SCF Gradients <==

    Gradient:                    1
    J tasked:                  Yes
    K tasked:                  Yes
    wK tasked:                  No
    OpenMP threads:             16
    Integrals threads:          16
    Memory (MB):             78678
    Schwarz Cutoff:          0E+00
    Fitting Condition:       1E-12

   => Auxiliary Basis Set <=

  Basis Set: (6-31G(D) AUX)
    Blend: CC-PVDZ-JKFIT
    Number of shells: 84
    Number of basis function: 262
    Number of Cartesian functions: 262
    Spherical Harmonics?: false
    Max angular momentum: 3


  -Total Gradient:
     Atom            X                  Y                   Z
    ------   -----------------  -----------------  -----------------
       1        0.000004667876    -0.000002192249    -0.000001155238
       2        0.000001010525     0.000001834274     0.000000243459
       3       -0.000001908030     0.000000552739    -0.000000062883
       4        0.000000136491     0.000001148213     0.000001049617
       5       -0.000004577537    -0.000000470720     0.000000082161
       6        0.000000670677    -0.000000872257    -0.000000157115


*** tstop() called on wr86 at Thu Dec  6 16:38:21 2018
Module time:
	user time   =      10.41 seconds =       0.17 minutes
	system time =       0.53 seconds =       0.01 minutes
	total time  =          0 seconds =       0.00 minutes
Total time:
	user time   =     568.79 seconds =       9.48 minutes
	system time =      23.80 seconds =       0.40 minutes
	total time  =         41 seconds =       0.68 minutes

-------------------------------------------------------------

  Computing second-derivative from gradients using projected, 
  symmetry-adapted, cartesian coordinates (fd_freq_1).

  25 gradients passed in, including the reference geometry.
  Generating complete list of displacements from unique ones.


-------------------------------------------------------------


  ==> Harmonic Vibrational Analysis <==

  non-mass-weighted Hessian:       Symmetric? True   Hermitian? True   Lin Dep Dim?  6 (0)
  projection of translations (True) and rotations (True) removed 6 degrees of freedom (6)
  total projector:                 Symmetric? True   Hermitian? True   Lin Dep Dim?  6 (6)
  mass-weighted Hessian:           Symmetric? True   Hermitian? True   Lin Dep Dim?  6 (0)
  pre-proj  low-frequency mode:    0.0000i [cm^-1]
  pre-proj  low-frequency mode:    0.0000i [cm^-1]
  pre-proj  low-frequency mode:    0.0000i [cm^-1]
  pre-proj  low-frequency mode:    0.0000  [cm^-1]
  pre-proj  low-frequency mode:    0.0000  [cm^-1]
  pre-proj  low-frequency mode:    0.0000  [cm^-1]
  pre-proj  all modes:['0.0000i' '0.0000i' '0.0000i' '0.0000' '0.0000' '0.0000' '348.1787'
 '1164.4388' '1188.3636' '1289.6388' '1507.8602' '1637.8004' '1651.7793'
 '1663.6468' '3185.4668' '3231.5349' '3305.7584' '4117.6131']
  projected mass-weighted Hessian: Symmetric? True   Hermitian? True   Lin Dep Dim?  6 (6)
  post-proj low-frequency mode:    0.0000i [cm^-1] (TR)
  post-proj low-frequency mode:    0.0000i [cm^-1] (TR)
  post-proj low-frequency mode:    0.0000i [cm^-1] (TR)
  post-proj low-frequency mode:    0.0000  [cm^-1] (TR)
  post-proj low-frequency mode:    0.0000  [cm^-1] (TR)
  post-proj low-frequency mode:    0.0000  [cm^-1] (TR)
  post-proj  all modes:['0.0000i' '0.0000i' '0.0000i' '0.0000' '0.0000' '0.0000' '348.1787'
 '1164.4388' '1188.3636' '1289.6388' '1507.8602' '1637.8004' '1651.7793'
 '1663.6468' '3185.4668' '3231.5349' '3305.7584' '4117.6131']

  Vibration                       7                   8                   9           
  Freq [cm^-1]                 348.1787           1164.4388           1188.3636       
  Irrep                           A                   A                   A           
  Reduced mass [u]              1.0716              1.0999              5.8047        
  Force const [mDyne/A]         0.0765              0.8787              4.8298        
  Turning point v=0 [a0]        0.5681              0.3066              0.1321        
  RMS dev v=0 [a0 u^1/2]        0.4158              0.2274              0.2251        
  Char temp [K]                500.9509           1675.3656           1709.7880       
  ----------------------------------------------------------------------------------
      1   C                0.00  0.00  0.00    0.01 -0.07  0.00    0.47  0.05 -0.00   
      2   H               -0.05  0.21 -0.11   -0.27  0.19 -0.04    0.46 -0.03  0.01   
      3   H                0.00  0.01  0.29    0.56  0.15 -0.01    0.24 -0.03  0.00   
      4   H                0.05 -0.22 -0.09   -0.27  0.20  0.03    0.46 -0.03 -0.02   
      5   O               -0.00 -0.00 -0.07   -0.05  0.00  0.00   -0.40 -0.03  0.00   
      6   H                0.00  0.03  0.89    0.59  0.29 -0.01   -0.37  0.00  0.00   

  Vibration                       10                  11                  12          
  Freq [cm^-1]                1289.6388           1507.8602           1637.8004       
  Irrep                           A                   A                   A           
  Reduced mass [u]              1.2656              1.2953              1.1570        
  Force const [mDyne/A]         1.2402              1.7352              1.8285        
  Turning point v=0 [a0]        0.2716              0.2483              0.2521        
  RMS dev v=0 [a0 u^1/2]        0.2161              0.1998              0.1917        
  Char temp [K]               1855.5003           2169.4719           2356.4266       
  ----------------------------------------------------------------------------------
      1   C                0.00  0.01  0.14   -0.02  0.12 -0.00   -0.11  0.02 -0.00   
      2   H                0.64  0.09 -0.19    0.19 -0.16  0.09    0.46 -0.25 -0.06   
      3   H               -0.00 -0.01 -0.26   -0.46 -0.04  0.00    0.59  0.28 -0.01   
      4   H               -0.64 -0.10 -0.18    0.18 -0.17 -0.08    0.46 -0.24  0.08   
      5   O               -0.00 -0.00 -0.06   -0.03 -0.09  0.00   -0.01  0.00 -0.00   
      6   H               -0.00 -0.00 -0.01    0.75  0.27 -0.01   -0.01  0.00 -0.00   

  Vibration                       13                  14                  15          
  Freq [cm^-1]                1651.7793           1663.6468           3185.4668       
  Irrep                           A                   A                   A           
  Reduced mass [u]              1.0500              1.0518              1.0369        
  Force const [mDyne/A]         1.6879              1.7152              6.1990        
  Turning point v=0 [a0]        0.2635              0.2623              0.1909        
  RMS dev v=0 [a0 u^1/2]        0.1909              0.1902              0.1375        
  Char temp [K]               2376.5390           2393.6136           4583.1705       
  ----------------------------------------------------------------------------------
      1   C               -0.00 -0.00 -0.06   -0.03 -0.05  0.00    0.04  0.03 -0.00   
      2   H                0.30 -0.37  0.08    0.30  0.44 -0.43   -0.22 -0.34 -0.55   
      3   H                0.00  0.03  0.73   -0.21 -0.10  0.00   -0.10  0.26 -0.01   
      4   H               -0.29  0.38  0.05    0.30  0.47  0.39   -0.21 -0.29  0.57   
      5   O               -0.00 -0.00 -0.01   -0.00 -0.01  0.00    0.00 -0.00 -0.00   
      6   H               -0.00 -0.00 -0.01    0.07  0.02 -0.00    0.00 -0.00  0.00   

  Vibration                       16                  17                  18          
  Freq [cm^-1]                3231.5349           3305.7584           4117.6131       
  Irrep                           A                   A                   A           
  Reduced mass [u]              1.1064              1.0990              1.0670        
  Force const [mDyne/A]         6.8072              7.0759             10.6583        
  Turning point v=0 [a0]        0.1835              0.1820              0.1655        
  RMS dev v=0 [a0 u^1/2]        0.1365              0.1349              0.1209        
  Char temp [K]               4649.4522           4756.2431           5924.3195       
  ----------------------------------------------------------------------------------
      1   C               -0.00 -0.00 -0.09    0.02 -0.09  0.00   -0.00 -0.00  0.00   
      2   H                0.23  0.37  0.56    0.06  0.08  0.15   -0.00  0.00  0.00   
      3   H               -0.00 -0.00 -0.02   -0.34  0.90 -0.03   -0.00  0.01 -0.00   
      4   H               -0.22 -0.32  0.58    0.06  0.07 -0.16   -0.00  0.00 -0.00   
      5   O                0.00  0.00  0.00   -0.00  0.00 -0.00    0.03 -0.06  0.00   
      6   H                0.00  0.00  0.00   -0.00 -0.02  0.00   -0.41  0.91 -0.03   

  ==> Thermochemistry Components <==

  Entropy, S
    Electronic S            0.000 [cal/(mol K)]        0.000 [J/(mol K)]       0.00000000 [mEh/K] (multiplicity = 1)
    Translational S        36.324 [cal/(mol K)]      151.980 [J/(mol K)]       0.05788607 [mEh/K] (mol. weight = 32.0262 [u], P = 101325.00 [Pa])
    Rotational S           18.914 [cal/(mol K)]       79.136 [J/(mol K)]       0.03014139 [mEh/K] (symmetry no. = 1)
    Vibrational S           1.324 [cal/(mol K)]        5.540 [J/(mol K)]       0.00211016 [mEh/K]
  Total S                  56.562 [cal/(mol K)]      236.656 [J/(mol K)]       0.09013761 [mEh/K]
  Correction S              0.000 [cal/(mol K)]        0.000 [J/(mol K)]       0.00000000 [mEh/K]

  Constant volume heat capacity, Cv
    Electronic Cv           0.000 [cal/(mol K)]        0.000 [J/(mol K)]       0.00000000 [mEh/K]
    Translational Cv        2.981 [cal/(mol K)]       12.472 [J/(mol K)]       0.00475022 [mEh/K]
    Rotational Cv           2.981 [cal/(mol K)]       12.472 [J/(mol K)]       0.00475022 [mEh/K]
    Vibrational Cv          2.378 [cal/(mol K)]        9.952 [J/(mol K)]       0.00379033 [mEh/K]
  Total Cv                  8.340 [cal/(mol K)]       34.895 [J/(mol K)]       0.01329078 [mEh/K]
  Correction Cv             0.000 [cal/(mol K)]        0.000 [J/(mol K)]       0.00000000 [mEh/K]

  Constant pressure heat capacity, Cp
    Electronic Cp           0.000 [cal/(mol K)]        0.000 [J/(mol K)]       0.00000000 [mEh/K]
    Translational Cp        4.968 [cal/(mol K)]       20.786 [J/(mol K)]       0.00791704 [mEh/K]
    Rotational Cp           2.981 [cal/(mol K)]       12.472 [J/(mol K)]       0.00475022 [mEh/K]
    Vibrational Cp          2.378 [cal/(mol K)]        9.952 [J/(mol K)]       0.00379033 [mEh/K]
  Total Cp                 10.327 [cal/(mol K)]       43.209 [J/(mol K)]       0.01645759 [mEh/K]
  Correction Cp             0.000 [cal/(mol K)]        0.000 [J/(mol K)]       0.00000000 [mEh/K]

  ==> Thermochemistry Energy Analysis <==

  Raw electronic energy, E0
  Total E0, Electronic energy at well bottom at 0 [K]                 -115.03535414 [Eh]

  Zero-point energy, ZPE_vib = Sum_i nu_i / 2
    Electronic ZPE          0.000 [kcal/mol]        0.000 [kJ/mol]       0.00000000 [Eh]
    Translational ZPE       0.000 [kcal/mol]        0.000 [kJ/mol]       0.00000000 [Eh]
    Rotational ZPE          0.000 [kcal/mol]        0.000 [kJ/mol]       0.00000000 [Eh]
    Vibrational ZPE        34.727 [kcal/mol]      145.299 [kJ/mol]       0.05534142 [Eh]       12146.036 [cm^-1]
  Correction ZPE           34.727 [kcal/mol]      145.299 [kJ/mol]       0.05534142 [Eh]       12146.036 [cm^-1]
  Total ZPE, Electronic energy at 0 [K]                               -114.98001272 [Eh]

  Thermal Energy, E (includes ZPE)
    Electronic E            0.000 [kcal/mol]        0.000 [kJ/mol]       0.00000000 [Eh]
    Translational E         0.889 [kcal/mol]        3.718 [kJ/mol]       0.00141628 [Eh]
    Rotational E            0.889 [kcal/mol]        3.718 [kJ/mol]       0.00141628 [Eh]
    Vibrational E          34.994 [kcal/mol]      146.413 [kJ/mol]       0.05576586 [Eh]
  Correction E             36.771 [kcal/mol]      153.850 [kJ/mol]       0.05859842 [Eh]
  Total E, Electronic energy at  298.15 [K]                           -114.97675572 [Eh]

  Enthalpy, H_trans = E_trans + k_B * T
    Electronic H            0.000 [kcal/mol]        0.000 [kJ/mol]       0.00000000 [Eh]
    Translational H         1.481 [kcal/mol]        6.197 [kJ/mol]       0.00236046 [Eh]
    Rotational H            0.889 [kcal/mol]        3.718 [kJ/mol]       0.00141628 [Eh]
    Vibrational H          34.994 [kcal/mol]      146.413 [kJ/mol]       0.05576586 [Eh]
  Correction H             37.364 [kcal/mol]      156.329 [kJ/mol]       0.05954261 [Eh]
  Total H, Enthalpy at  298.15 [K]                                    -114.97581154 [Eh]

  Gibbs free energy, G = H - T * S
    Electronic G            0.000 [kcal/mol]        0.000 [kJ/mol]       0.00000000 [Eh]
    Translational G        -9.349 [kcal/mol]      -39.115 [kJ/mol]      -0.01489827 [Eh]
    Rotational G           -4.750 [kcal/mol]      -19.876 [kJ/mol]      -0.00757038 [Eh]
    Vibrational G          34.599 [kcal/mol]      144.761 [kJ/mol]       0.05513672 [Eh]
  Correction G             20.500 [kcal/mol]       85.770 [kJ/mol]       0.03266808 [Eh]
  Total G, Free enthalpy at  298.15 [K]                               -115.00268607 [Eh]

    Psi4 stopped on: Thursday, 06 December 2018 04:38PM
    Psi4 wall time for execution: 0:00:41.22

*** Psi4 exiting successfully. Buy a developer a beer!
