
    -----------------------------------------------------------------------
          Psi4: An Open-Source Ab Initio Electronic Structure Package
                               Psi4 1.2.1 release

                         Git: Rev {HEAD} 406f4de 


    R. M. Parrish, L. A. Burns, D. G. A. Smith, A. C. Simmonett,
    A. E. DePrince III, E. G. Hohenstein, U. Bozkaya, A. Yu. Sokolov,
    R. Di Remigio, R. M. Richard, J. F. Gonthier, A. M. James,
    H. R. McAlexander, A. Kumar, M. Saitow, X. Wang, B. P. Pritchard,
    P. Verma, H. F. Schaefer III, K. Patkowski, R. A. King, E. F. Valeev,
    F. A. Evangelista, J. M. Turney, T. D. Crawford, and C. D. Sherrill,
    J. Chem. Theory Comput. 13(7) pp 3185--3197 (2017).
    (doi: 10.1021/acs.jctc.7b00174)


                         Additional Contributions by
    P. Kraus, H. Kruse, M. H. Lechner, M. C. Schieber, and R. A. Shaw

    -----------------------------------------------------------------------


    Psi4 started on: Thursday, 06 December 2018 04:38PM

    Process ID: 231380
    Host:       wr86
    PSIDATADIR: /usr/local/hpc1/software_molmod/psi4/psi4conda/share/psi4
    Memory:     500.0 MiB
    Threads:    16
    
  ==> Input File <==

--------------------------------------------------------------------------
memory 110 Gb

molecule molecule_2_psi {
0 1
    C           -0.719743990292     0.012301564546     0.005658769153
    H           -1.074916777877     1.038032036332    -0.018183723069
    H           -1.106621706473    -0.459864178762     0.901864569381
    H           -1.121239107053    -0.505833948326    -0.858132438726
    O            0.681563884978    -0.064329684129    -0.003984221719
    H            1.055732526594     0.802152239195    -0.029693912495
}

set globals {
  reference rhf
  opt_type ts
  basis 6-31G(d)
}
frequency('scf', dertype=1)
--------------------------------------------------------------------------

  Memory set to 102.445 GiB by Python driver.
gradient() will perform analytic gradient computation.

*** tstart() called on wr86
*** at Thu Dec  6 16:38:23 2018

   => Loading Basis Set <=

    Name: 6-31G(D)
    Role: ORBITAL
    Keyword: BASIS
    atoms 1      entry C          line   111 file /usr/local/hpc1/software_molmod/psi4/psi4conda/share/psi4/basis/6-31g_d_.gbs 
    atoms 2-4, 6 entry H          line    44 file /usr/local/hpc1/software_molmod/psi4/psi4conda/share/psi4/basis/6-31g_d_.gbs 
    atoms 5      entry O          line   145 file /usr/local/hpc1/software_molmod/psi4/psi4conda/share/psi4/basis/6-31g_d_.gbs 


         ---------------------------------------------------------
                                   SCF
            by Justin Turney, Rob Parrish, Andy Simmonett
                             and Daniel Smith
                              RHF Reference
                       16 Threads, 104904 MiB Core
         ---------------------------------------------------------

  ==> Geometry <==

    Molecular point group: c1
    Full point group: C1

    Geometry (in Angstrom), charge = 0, multiplicity = 1:

       Center              X                  Y                   Z               Mass       
    ------------   -----------------  -----------------  -----------------  -----------------
         C           -0.719743990292     0.012301564546     0.005658769153    12.000000000000
         H           -1.074916777877     1.038032036332    -0.018183723069     1.007825032070
         H           -1.106621706473    -0.459864178762     0.901864569381     1.007825032070
         H           -1.121239107053    -0.505833948326    -0.858132438726     1.007825032070
         O            0.681563884978    -0.064329684129    -0.003984221719    15.994914619560
         H            1.055732526594     0.802152239195    -0.029693912495     1.007825032070

  Running in c1 symmetry.

  Rotational constants: A =      4.39458  B =      0.84294  C =      0.81396 [cm^-1]
  Rotational constants: A = 131746.29915  B =  25270.55615  C =  24401.99936 [MHz]
  Nuclear repulsion =   40.727598062498480

  Charge       = 0
  Multiplicity = 1
  Electrons    = 18
  Nalpha       = 9
  Nbeta        = 9

  ==> Algorithm <==

  SCF Algorithm Type is DF.
  DIIS enabled.
  MOM disabled.
  Fractional occupation disabled.
  Guess Type is SAD.
  Energy threshold   = 1.00e-08
  Density threshold  = 1.00e-08
  Integral threshold = 0.00e+00

  ==> Primary Basis <==

  Basis Set: 6-31G(D)
    Blend: 6-31G(D)
    Number of shells: 20
    Number of basis function: 38
    Number of Cartesian functions: 38
    Spherical Harmonics?: false
    Max angular momentum: 2

   => Loading Basis Set <=

    Name: (6-31G(D) AUX)
    Role: JKFIT
    Keyword: DF_BASIS_SCF
    atoms 1      entry C          line   121 file /usr/local/hpc1/software_molmod/psi4/psi4conda/share/psi4/basis/cc-pvdz-jkfit.gbs 
    atoms 2-4, 6 entry H          line    51 file /usr/local/hpc1/software_molmod/psi4/psi4conda/share/psi4/basis/cc-pvdz-jkfit.gbs 
    atoms 5      entry O          line   221 file /usr/local/hpc1/software_molmod/psi4/psi4conda/share/psi4/basis/cc-pvdz-jkfit.gbs 

  ==> Pre-Iterations <==

   -------------------------------------------------------
    Irrep   Nso     Nmo     Nalpha   Nbeta   Ndocc  Nsocc
   -------------------------------------------------------
     A         38      38       0       0       0       0
   -------------------------------------------------------
    Total      38      38       9       9       9       0
   -------------------------------------------------------

  ==> Integral Setup <==

  ==> DiskDFJK: Density-Fitted J/K Matrices <==

    J tasked:                  Yes
    K tasked:                  Yes
    wK tasked:                  No
    OpenMP threads:             16
    Integrals threads:          16
    Memory (MB):             78678
    Algorithm:                Core
    Integral Cache:           NONE
    Schwarz Cutoff:          1E-12
    Fitting Condition:       1E-12

   => Auxiliary Basis Set <=

  Basis Set: (6-31G(D) AUX)
    Blend: CC-PVDZ-JKFIT
    Number of shells: 84
    Number of basis function: 262
    Number of Cartesian functions: 262
    Spherical Harmonics?: false
    Max angular momentum: 3

  Minimum eigenvalue in the overlap matrix is 9.3265209562E-03.
  Using Symmetric Orthogonalization.

  SCF Guess: Superposition of Atomic Densities via on-the-fly atomic UHF.

  ==> Iterations <==

                           Total Energy        Delta E     RMS |[F,P]|

   @DF-RHF iter   0:  -115.56900996917253   -1.15569e+02   3.04858e-01 
   @DF-RHF iter   1:  -114.98925992111239    5.79750e-01   1.48429e-02 
   @DF-RHF iter   2:  -115.02749597947707   -3.82361e-02   5.79401e-03 DIIS
   @DF-RHF iter   3:  -115.03211678333827   -4.62080e-03   2.04036e-03 DIIS
   @DF-RHF iter   4:  -115.03307587489769   -9.59092e-04   7.21209e-04 DIIS
   @DF-RHF iter   5:  -115.03317289980311   -9.70249e-05   2.12354e-04 DIIS
   @DF-RHF iter   6:  -115.03318682003224   -1.39202e-05   5.69242e-05 DIIS
   @DF-RHF iter   7:  -115.03318798837826   -1.16835e-06   1.09632e-05 DIIS
   @DF-RHF iter   8:  -115.03318804496338   -5.65851e-08   2.13136e-06 DIIS
   @DF-RHF iter   9:  -115.03318804612958   -1.16620e-09   3.79931e-07 DIIS
   @DF-RHF iter  10:  -115.03318804616575   -3.61666e-11   1.26787e-07 DIIS
   @DF-RHF iter  11:  -115.03318804616734   -1.59162e-12   1.93772e-08 DIIS
   @DF-RHF iter  12:  -115.03318804616755   -2.13163e-13   3.48883e-09 DIIS

  ==> Post-Iterations <==

    Orbital Energies [Eh]
    ---------------------

    Doubly Occupied:                                                      

       1A    -20.553151     2A    -11.266827     3A     -1.357958  
       4A     -0.927258     5A     -0.693491     6A     -0.619197  
       7A     -0.595952     8A     -0.496892     9A     -0.440948  

    Virtual:                                                              

      10A      0.221996    11A      0.278410    12A      0.325849  
      13A      0.332014    14A      0.395441    15A      0.763092  
      16A      0.763806    17A      0.797068    18A      1.084394  
      19A      1.135642    20A      1.135712    21A      1.184026  
      22A      1.218555    23A      1.250125    24A      1.273016  
      25A      1.447568    26A      1.726854    27A      1.761468  
      28A      1.817005    29A      2.045711    30A      2.428235  
      31A      2.459357    32A      2.511770    33A      2.609774  
      34A      2.737227    35A      2.900896    36A      3.167927  
      37A      4.139830    38A      4.645309  

    Final Occupation by Irrep:
              A 
    DOCC [     9 ]

  Energy converged.

  @DF-RHF Final Energy:  -115.03318804616755

   => Energetics <=

    Nuclear Repulsion Energy =             40.7275980624984797
    One-Electron Energy =                -237.6182221328323863
    Two-Electron Energy =                  81.8574360241663470
    Total Energy =                       -115.0331880461675524



Properties will be evaluated at   0.000000,   0.000000,   0.000000 [a0]

Properties computed using the SCF density matrix

  Nuclear Dipole Moment: [e a0]
     X:    -2.1033      Y:     0.8195      Z:    -0.0039

  Electronic Dipole Moment: [e a0]
     X:     1.7248      Y:    -0.1477      Z:    -0.0105

  Dipole Moment: [e a0]
     X:    -0.3784      Y:     0.6718      Z:    -0.0144     Total:     0.7712

  Dipole Moment: [D]
     X:    -0.9619      Y:     1.7076      Z:    -0.0366     Total:     1.9602


*** tstop() called on wr86 at Thu Dec  6 16:38:23 2018
Module time:
	user time   =       9.64 seconds =       0.16 minutes
	system time =       0.45 seconds =       0.01 minutes
	total time  =          0 seconds =       0.00 minutes
Total time:
	user time   =       9.64 seconds =       0.16 minutes
	system time =       0.45 seconds =       0.01 minutes
	total time  =          0 seconds =       0.00 minutes

*** tstart() called on wr86
*** at Thu Dec  6 16:38:23 2018


         ------------------------------------------------------------
                                   SCF GRAD                          
                          Rob Parrish, Justin Turney,                
                       Andy Simmonett, and Alex Sokolov              
         ------------------------------------------------------------

  ==> Geometry <==

    Molecular point group: c1
    Full point group: C1

    Geometry (in Angstrom), charge = 0, multiplicity = 1:

       Center              X                  Y                   Z               Mass       
    ------------   -----------------  -----------------  -----------------  -----------------
         C           -0.719743990292     0.012301564546     0.005658769153    12.000000000000
         H           -1.074916777877     1.038032036332    -0.018183723069     1.007825032070
         H           -1.106621706473    -0.459864178762     0.901864569381     1.007825032070
         H           -1.121239107053    -0.505833948326    -0.858132438726     1.007825032070
         O            0.681563884978    -0.064329684129    -0.003984221719    15.994914619560
         H            1.055732526594     0.802152239195    -0.029693912495     1.007825032070

  Nuclear repulsion =   40.727598062498480

  ==> Basis Set <==

  Basis Set: 6-31G(D)
    Blend: 6-31G(D)
    Number of shells: 20
    Number of basis function: 38
    Number of Cartesian functions: 38
    Spherical Harmonics?: false
    Max angular momentum: 2

  ==> DFJKGrad: Density-Fitted SCF Gradients <==

    Gradient:                    1
    J tasked:                  Yes
    K tasked:                  Yes
    wK tasked:                  No
    OpenMP threads:             16
    Integrals threads:          16
    Memory (MB):             78678
    Schwarz Cutoff:          0E+00
    Fitting Condition:       1E-12

   => Auxiliary Basis Set <=

  Basis Set: (6-31G(D) AUX)
    Blend: CC-PVDZ-JKFIT
    Number of shells: 84
    Number of basis function: 262
    Number of Cartesian functions: 262
    Spherical Harmonics?: false
    Max angular momentum: 3


  -Total Gradient:
     Atom            X                  Y                   Z
    ------   -----------------  -----------------  -----------------
       1       -0.000002273178     0.000000561816     0.000000105565
       2        0.000000255303    -0.000000450503    -0.000000012626
       3       -0.000000001677    -0.000000178167    -0.000000112021
       4        0.000000382202     0.000000121317     0.000000190903
       5        0.000000967787    -0.000001163248     0.000000104385
       6        0.000000669560     0.000001108786    -0.000000276206


*** tstop() called on wr86 at Thu Dec  6 16:38:24 2018
Module time:
	user time   =      10.54 seconds =       0.18 minutes
	system time =       0.46 seconds =       0.01 minutes
	total time  =          1 seconds =       0.02 minutes
Total time:
	user time   =      20.19 seconds =       0.34 minutes
	system time =       0.91 seconds =       0.02 minutes
	total time  =          1 seconds =       0.02 minutes

  Based on options and gradient (rms=1.29E-06), recommend projecting translations and projecting rotations.
hessian() will perform frequency computation by finite difference of analytic gradients.

-------------------------------------------------------------

  Using finite-differences of gradients to determine vibrational frequencies and 
  normal modes.  Resulting frequencies are only valid at stationary points.
	Generating geometries for use with 3-point formula.
	Displacement size will be 5.00e-03.
	Number of atoms is 6.
	Number of irreps is 1.
	Number of SALCS is 12.
	Translations projected? 1. Rotations projected? 1.
	Index of salcs per irrep:
	 1 :  0  1  2  3  4  5  6  7  8  9  10  11 
	Number of SALC's per irrep:
		 Irrep 1: 12
	Number of geometries (including reference) is 25.
	Number of displacements per irrep:
	  Irrep 1: 24

  //>>>>>>>>>>>>>>>>>>>>>>>>>>>>>>>>>>>//
  //    Loading displacement 1 of 25   //
  //<<<<<<<<<<<<<<<<<<<<<<<<<<<<<<<<<<<//
gradient() will perform analytic gradient computation.

*** tstart() called on wr86
*** at Thu Dec  6 16:38:24 2018

   => Loading Basis Set <=

    Name: 6-31G(D)
    Role: ORBITAL
    Keyword: BASIS
    atoms 1      entry C          line   111 file /usr/local/hpc1/software_molmod/psi4/psi4conda/share/psi4/basis/6-31g_d_.gbs 
    atoms 2-4, 6 entry H          line    44 file /usr/local/hpc1/software_molmod/psi4/psi4conda/share/psi4/basis/6-31g_d_.gbs 
    atoms 5      entry O          line   145 file /usr/local/hpc1/software_molmod/psi4/psi4conda/share/psi4/basis/6-31g_d_.gbs 


         ---------------------------------------------------------
                                   SCF
            by Justin Turney, Rob Parrish, Andy Simmonett
                             and Daniel Smith
                              RHF Reference
                       16 Threads, 104904 MiB Core
         ---------------------------------------------------------

  ==> Geometry <==

    Molecular point group: c1
    Full point group: C1

    Geometry (in Angstrom), charge = 0, multiplicity = 1:

       Center              X                  Y                   Z               Mass       
    ------------   -----------------  -----------------  -----------------  -----------------
         C           -0.720347924988     0.012306522496     0.005661137676    12.000000000000
         H           -1.074547736649     1.038039447733    -0.018179923645     1.007825032070
         H           -1.106259962877    -0.459856785397     0.901868087966     1.007825032070
         H           -1.120883464252    -0.505826001832    -0.858128883919     1.007825032070
         O            0.681925377035    -0.064334379429    -0.003986478141    15.994914619560
         H            1.056099904662     0.802144972291    -0.029697175853     1.007825032070

  Running in c1 symmetry.

  Rotational constants: A =      4.39458  B =      0.84223  C =      0.81331 [cm^-1]
  Rotational constants: A = 131746.29334  B =  25249.48016  C =  24382.34648 [MHz]
  Nuclear repulsion =   40.717172027395414

  Charge       = 0
  Multiplicity = 1
  Electrons    = 18
  Nalpha       = 9
  Nbeta        = 9

  ==> Algorithm <==

  SCF Algorithm Type is DF.
  DIIS enabled.
  MOM disabled.
  Fractional occupation disabled.
  Guess Type is SAD.
  Energy threshold   = 1.00e-08
  Density threshold  = 1.00e-08
  Integral threshold = 0.00e+00

  ==> Primary Basis <==

  Basis Set: 6-31G(D)
    Blend: 6-31G(D)
    Number of shells: 20
    Number of basis function: 38
    Number of Cartesian functions: 38
    Spherical Harmonics?: false
    Max angular momentum: 2

   => Loading Basis Set <=

    Name: (6-31G(D) AUX)
    Role: JKFIT
    Keyword: DF_BASIS_SCF
    atoms 1      entry C          line   121 file /usr/local/hpc1/software_molmod/psi4/psi4conda/share/psi4/basis/cc-pvdz-jkfit.gbs 
    atoms 2-4, 6 entry H          line    51 file /usr/local/hpc1/software_molmod/psi4/psi4conda/share/psi4/basis/cc-pvdz-jkfit.gbs 
    atoms 5      entry O          line   221 file /usr/local/hpc1/software_molmod/psi4/psi4conda/share/psi4/basis/cc-pvdz-jkfit.gbs 

  ==> Pre-Iterations <==

   -------------------------------------------------------
    Irrep   Nso     Nmo     Nalpha   Nbeta   Ndocc  Nsocc
   -------------------------------------------------------
     A         38      38       0       0       0       0
   -------------------------------------------------------
    Total      38      38       9       9       9       0
   -------------------------------------------------------

  ==> Integral Setup <==

  ==> DiskDFJK: Density-Fitted J/K Matrices <==

    J tasked:                  Yes
    K tasked:                  Yes
    wK tasked:                  No
    OpenMP threads:             16
    Integrals threads:          16
    Memory (MB):             78678
    Algorithm:                Core
    Integral Cache:           NONE
    Schwarz Cutoff:          1E-12
    Fitting Condition:       1E-12

   => Auxiliary Basis Set <=

  Basis Set: (6-31G(D) AUX)
    Blend: CC-PVDZ-JKFIT
    Number of shells: 84
    Number of basis function: 262
    Number of Cartesian functions: 262
    Spherical Harmonics?: false
    Max angular momentum: 3

  Minimum eigenvalue in the overlap matrix is 9.3309151692E-03.
  Using Symmetric Orthogonalization.

  SCF Guess: Superposition of Atomic Densities via on-the-fly atomic UHF.

  ==> Iterations <==

                           Total Energy        Delta E     RMS |[F,P]|

   @DF-RHF iter   0:  -115.67278582610527   -1.15673e+02   1.56029e-01 
   @DF-RHF iter   1:  -114.97863237057074    6.94153e-01   1.31544e-02 
   @DF-RHF iter   2:  -115.02524531034204   -4.66129e-02   7.38665e-03 DIIS
   @DF-RHF iter   3:  -115.03220806541616   -6.96276e-03   4.01911e-03 DIIS
   @DF-RHF iter   4:  -115.03310569880063   -8.97633e-04   5.46637e-04 DIIS
   @DF-RHF iter   5:  -115.03317838185134   -7.26831e-05   1.67492e-04 DIIS
   @DF-RHF iter   6:  -115.03318664843086   -8.26658e-06   3.71501e-05 DIIS
   @DF-RHF iter   7:  -115.03318706072071   -4.12290e-07   8.44326e-06 DIIS
   @DF-RHF iter   8:  -115.03318707835135   -1.76306e-08   1.68380e-06 DIIS
   @DF-RHF iter   9:  -115.03318707911009   -7.58746e-10   3.43609e-07 DIIS
   @DF-RHF iter  10:  -115.03318707914042   -3.03260e-11   5.30391e-08 DIIS
   @DF-RHF iter  11:  -115.03318707914184   -1.42109e-12   1.63661e-08 DIIS
   @DF-RHF iter  12:  -115.03318707914198   -1.42109e-13   3.94195e-09 DIIS

  ==> Post-Iterations <==

    Orbital Energies [Eh]
    ---------------------

    Doubly Occupied:                                                      

       1A    -20.553044     2A    -11.266789     3A     -1.357541  
       4A     -0.927360     5A     -0.693230     6A     -0.619181  
       7A     -0.595742     8A     -0.496983     9A     -0.441033  

    Virtual:                                                              

      10A      0.222018    11A      0.278467    12A      0.325816  
      13A      0.332010    14A      0.395163    15A      0.762914  
      16A      0.763659    17A      0.796640    18A      1.084746  
      19A      1.135692    20A      1.136028    21A      1.184055  
      22A      1.218739    23A      1.250143    24A      1.273127  
      25A      1.447462    26A      1.726750    27A      1.761365  
      28A      1.817208    29A      2.045993    30A      2.427105  
      31A      2.460074    32A      2.512233    33A      2.609041  
      34A      2.736179    35A      2.900544    36A      3.167548  
      37A      4.139511    38A      4.645594  

    Final Occupation by Irrep:
              A 
    DOCC [     9 ]

  Energy converged.

  @DF-RHF Final Energy:  -115.03318707914198

   => Energetics <=

    Nuclear Repulsion Energy =             40.7171720273954136
    One-Electron Energy =                -237.5989145097482833
    Two-Electron Energy =                  81.8485554032108951
    Total Energy =                       -115.0331870791419817



Properties will be evaluated at   0.000000,   0.000000,   0.000000 [a0]

Properties computed using the SCF density matrix

  Nuclear Dipole Moment: [e a0]
     X:    -2.1019      Y:     0.8195      Z:    -0.0039

  Electronic Dipole Moment: [e a0]
     X:     1.7217      Y:    -0.1479      Z:    -0.0105

  Dipole Moment: [e a0]
     X:    -0.3802      Y:     0.6716      Z:    -0.0144     Total:     0.7719

  Dipole Moment: [D]
     X:    -0.9663      Y:     1.7071      Z:    -0.0365     Total:     1.9620


*** tstop() called on wr86 at Thu Dec  6 16:38:25 2018
Module time:
	user time   =      11.57 seconds =       0.19 minutes
	system time =       0.45 seconds =       0.01 minutes
	total time  =          1 seconds =       0.02 minutes
Total time:
	user time   =      31.89 seconds =       0.53 minutes
	system time =       1.36 seconds =       0.02 minutes
	total time  =          2 seconds =       0.03 minutes

*** tstart() called on wr86
*** at Thu Dec  6 16:38:25 2018


         ------------------------------------------------------------
                                   SCF GRAD                          
                          Rob Parrish, Justin Turney,                
                       Andy Simmonett, and Alex Sokolov              
         ------------------------------------------------------------

  ==> Geometry <==

    Molecular point group: c1
    Full point group: C1

    Geometry (in Angstrom), charge = 0, multiplicity = 1:

       Center              X                  Y                   Z               Mass       
    ------------   -----------------  -----------------  -----------------  -----------------
         C           -0.720347924988     0.012306522496     0.005661137676    12.000000000000
         H           -1.074547736649     1.038039447733    -0.018179923645     1.007825032070
         H           -1.106259962877    -0.459856785397     0.901868087966     1.007825032070
         H           -1.120883464252    -0.505826001832    -0.858128883919     1.007825032070
         O            0.681925377035    -0.064334379429    -0.003986478141    15.994914619560
         H            1.056099904662     0.802144972291    -0.029697175853     1.007825032070

  Nuclear repulsion =   40.717172027395414

  ==> Basis Set <==

  Basis Set: 6-31G(D)
    Blend: 6-31G(D)
    Number of shells: 20
    Number of basis function: 38
    Number of Cartesian functions: 38
    Spherical Harmonics?: false
    Max angular momentum: 2

  ==> DFJKGrad: Density-Fitted SCF Gradients <==

    Gradient:                    1
    J tasked:                  Yes
    K tasked:                  Yes
    wK tasked:                  No
    OpenMP threads:             16
    Integrals threads:          16
    Memory (MB):             78678
    Schwarz Cutoff:          0E+00
    Fitting Condition:       1E-12

   => Auxiliary Basis Set <=

  Basis Set: (6-31G(D) AUX)
    Blend: CC-PVDZ-JKFIT
    Number of shells: 84
    Number of basis function: 262
    Number of Cartesian functions: 262
    Spherical Harmonics?: false
    Max angular momentum: 3


  -Total Gradient:
     Atom            X                  Y                   Z
    ------   -----------------  -----------------  -----------------
       1       -0.001056559521    -0.000030394169    -0.000000312068
       2        0.000157858025    -0.000141927222     0.000003368367
       3        0.000151689228     0.000073728701    -0.000136467096
       4        0.000156459394     0.000084442995     0.000137734929
       5        0.000550206835     0.000037952490    -0.000004483377
       6        0.000040346036    -0.000023802793     0.000000159246


*** tstop() called on wr86 at Thu Dec  6 16:38:26 2018
Module time:
	user time   =      10.40 seconds =       0.17 minutes
	system time =       0.53 seconds =       0.01 minutes
	total time  =          1 seconds =       0.02 minutes
Total time:
	user time   =      42.31 seconds =       0.71 minutes
	system time =       1.89 seconds =       0.03 minutes
	total time  =          3 seconds =       0.05 minutes

  //>>>>>>>>>>>>>>>>>>>>>>>>>>>>>>>>>>>//
  //    Loading displacement 2 of 25   //
  //<<<<<<<<<<<<<<<<<<<<<<<<<<<<<<<<<<<//
gradient() will perform analytic gradient computation.

*** tstart() called on wr86
*** at Thu Dec  6 16:38:26 2018

   => Loading Basis Set <=

    Name: 6-31G(D)
    Role: ORBITAL
    Keyword: BASIS
    atoms 1      entry C          line   111 file /usr/local/hpc1/software_molmod/psi4/psi4conda/share/psi4/basis/6-31g_d_.gbs 
    atoms 2-4, 6 entry H          line    44 file /usr/local/hpc1/software_molmod/psi4/psi4conda/share/psi4/basis/6-31g_d_.gbs 
    atoms 5      entry O          line   145 file /usr/local/hpc1/software_molmod/psi4/psi4conda/share/psi4/basis/6-31g_d_.gbs 


         ---------------------------------------------------------
                                   SCF
            by Justin Turney, Rob Parrish, Andy Simmonett
                             and Daniel Smith
                              RHF Reference
                       16 Threads, 104904 MiB Core
         ---------------------------------------------------------

  ==> Geometry <==

    Molecular point group: c1
    Full point group: C1

    Geometry (in Angstrom), charge = 0, multiplicity = 1:

       Center              X                  Y                   Z               Mass       
    ------------   -----------------  -----------------  -----------------  -----------------
         C           -0.719140055596     0.012296606596     0.005656400630    12.000000000000
         H           -1.075285819104     1.038024624931    -0.018187522493     1.007825032070
         H           -1.106983450069    -0.459871572128     0.901861050796     1.007825032070
         H           -1.121594749853    -0.505841894820    -0.858135993533     1.007825032070
         O            0.681202392922    -0.064324988829    -0.003981965297    15.994914619560
         H            1.055365148526     0.802159506099    -0.029690649137     1.007825032070

  Running in c1 symmetry.

  Rotational constants: A =      4.39458  B =      0.84364  C =      0.81462 [cm^-1]
  Rotational constants: A = 131746.30517  B =  25291.64964  C =  24421.66743 [MHz]
  Nuclear repulsion =   40.738037401638096

  Charge       = 0
  Multiplicity = 1
  Electrons    = 18
  Nalpha       = 9
  Nbeta        = 9

  ==> Algorithm <==

  SCF Algorithm Type is DF.
  DIIS enabled.
  MOM disabled.
  Fractional occupation disabled.
  Guess Type is SAD.
  Energy threshold   = 1.00e-08
  Density threshold  = 1.00e-08
  Integral threshold = 0.00e+00

  ==> Primary Basis <==

  Basis Set: 6-31G(D)
    Blend: 6-31G(D)
    Number of shells: 20
    Number of basis function: 38
    Number of Cartesian functions: 38
    Spherical Harmonics?: false
    Max angular momentum: 2

   => Loading Basis Set <=

    Name: (6-31G(D) AUX)
    Role: JKFIT
    Keyword: DF_BASIS_SCF
    atoms 1      entry C          line   121 file /usr/local/hpc1/software_molmod/psi4/psi4conda/share/psi4/basis/cc-pvdz-jkfit.gbs 
    atoms 2-4, 6 entry H          line    51 file /usr/local/hpc1/software_molmod/psi4/psi4conda/share/psi4/basis/cc-pvdz-jkfit.gbs 
    atoms 5      entry O          line   221 file /usr/local/hpc1/software_molmod/psi4/psi4conda/share/psi4/basis/cc-pvdz-jkfit.gbs 

  ==> Pre-Iterations <==

   -------------------------------------------------------
    Irrep   Nso     Nmo     Nalpha   Nbeta   Ndocc  Nsocc
   -------------------------------------------------------
     A         38      38       0       0       0       0
   -------------------------------------------------------
    Total      38      38       9       9       9       0
   -------------------------------------------------------

  ==> Integral Setup <==

  ==> DiskDFJK: Density-Fitted J/K Matrices <==

    J tasked:                  Yes
    K tasked:                  Yes
    wK tasked:                  No
    OpenMP threads:             16
    Integrals threads:          16
    Memory (MB):             78678
    Algorithm:                Core
    Integral Cache:           NONE
    Schwarz Cutoff:          1E-12
    Fitting Condition:       1E-12

   => Auxiliary Basis Set <=

  Basis Set: (6-31G(D) AUX)
    Blend: CC-PVDZ-JKFIT
    Number of shells: 84
    Number of basis function: 262
    Number of Cartesian functions: 262
    Spherical Harmonics?: false
    Max angular momentum: 3

  Minimum eigenvalue in the overlap matrix is 9.3221143219E-03.
  Using Symmetric Orthogonalization.

  SCF Guess: Superposition of Atomic Densities via on-the-fly atomic UHF.

  ==> Iterations <==

                           Total Energy        Delta E     RMS |[F,P]|

   @DF-RHF iter   0:  -115.57827375378579   -1.15578e+02   1.70289e-01 
   @DF-RHF iter   1:  -114.97737468236588    6.00899e-01   2.28844e-02 
   @DF-RHF iter   2:  -115.02742490759715   -5.00502e-02   5.47307e-03 DIIS
   @DF-RHF iter   3:  -115.03209115996974   -4.66625e-03   2.25076e-03 DIIS
   @DF-RHF iter   4:  -115.03307746276587   -9.86303e-04   7.38649e-04 DIIS
   @DF-RHF iter   5:  -115.03318041256023   -1.02950e-04   1.65249e-04 DIIS
   @DF-RHF iter   6:  -115.03318688884956   -6.47629e-06   2.45258e-05 DIIS
   @DF-RHF iter   7:  -115.03318707342741   -1.84578e-07   6.17659e-06 DIIS
   @DF-RHF iter   8:  -115.03318708367780   -1.02504e-08   1.67274e-06 DIIS
   @DF-RHF iter   9:  -115.03318708470954   -1.03174e-09   3.17655e-07 DIIS
   @DF-RHF iter  10:  -115.03318708474170   -3.21592e-11   9.62584e-08 DIIS
   @DF-RHF iter  11:  -115.03318708474481   -3.11218e-12   2.80953e-08 DIIS
   @DF-RHF iter  12:  -115.03318708474502   -2.13163e-13   4.04368e-09 DIIS

  ==> Post-Iterations <==

    Orbital Energies [Eh]
    ---------------------

    Doubly Occupied:                                                      

       1A    -20.553258     2A    -11.266865     3A     -1.358376  
       4A     -0.927157     5A     -0.693754     6A     -0.619215  
       7A     -0.596164     8A     -0.496799     9A     -0.440863  

    Virtual:                                                              

      10A      0.221974    11A      0.278352    12A      0.325883  
      13A      0.332018    14A      0.395719    15A      0.763270  
      16A      0.763952    17A      0.797499    18A      1.084040  
      19A      1.135256    20A      1.135732    21A      1.183998  
      22A      1.218370    23A      1.250107    24A      1.272905  
      25A      1.447673    26A      1.726958    27A      1.761571  
      28A      1.816803    29A      2.045430    30A      2.429366  
      31A      2.458640    32A      2.511306    33A      2.610508  
      34A      2.738275    35A      2.901251    36A      3.168307  
      37A      4.140149    38A      4.645023  

    Final Occupation by Irrep:
              A 
    DOCC [     9 ]

  Energy converged.

  @DF-RHF Final Energy:  -115.03318708474502

   => Energetics <=

    Nuclear Repulsion Energy =             40.7380374016380955
    One-Electron Energy =                -237.6375482375293018
    Two-Electron Energy =                  81.8663237511461688
    Total Energy =                       -115.0331870847450233



Properties will be evaluated at   0.000000,   0.000000,   0.000000 [a0]

Properties computed using the SCF density matrix

  Nuclear Dipole Moment: [e a0]
     X:    -2.1046      Y:     0.8195      Z:    -0.0039

  Electronic Dipole Moment: [e a0]
     X:     1.7279      Y:    -0.1475      Z:    -0.0105

  Dipole Moment: [e a0]
     X:    -0.3767      Y:     0.6720      Z:    -0.0144     Total:     0.7705

  Dipole Moment: [D]
     X:    -0.9574      Y:     1.7080      Z:    -0.0366     Total:     1.9584


*** tstop() called on wr86 at Thu Dec  6 16:38:27 2018
Module time:
	user time   =      11.70 seconds =       0.20 minutes
	system time =       0.37 seconds =       0.01 minutes
	total time  =          1 seconds =       0.02 minutes
Total time:
	user time   =      54.14 seconds =       0.90 minutes
	system time =       2.26 seconds =       0.04 minutes
	total time  =          4 seconds =       0.07 minutes

*** tstart() called on wr86
*** at Thu Dec  6 16:38:27 2018


         ------------------------------------------------------------
                                   SCF GRAD                          
                          Rob Parrish, Justin Turney,                
                       Andy Simmonett, and Alex Sokolov              
         ------------------------------------------------------------

  ==> Geometry <==

    Molecular point group: c1
    Full point group: C1

    Geometry (in Angstrom), charge = 0, multiplicity = 1:

       Center              X                  Y                   Z               Mass       
    ------------   -----------------  -----------------  -----------------  -----------------
         C           -0.719140055596     0.012296606596     0.005656400630    12.000000000000
         H           -1.075285819104     1.038024624931    -0.018187522493     1.007825032070
         H           -1.106983450069    -0.459871572128     0.901861050796     1.007825032070
         H           -1.121594749853    -0.505841894820    -0.858135993533     1.007825032070
         O            0.681202392922    -0.064324988829    -0.003981965297    15.994914619560
         H            1.055365148526     0.802159506099    -0.029690649137     1.007825032070

  Nuclear repulsion =   40.738037401638096

  ==> Basis Set <==

  Basis Set: 6-31G(D)
    Blend: 6-31G(D)
    Number of shells: 20
    Number of basis function: 38
    Number of Cartesian functions: 38
    Spherical Harmonics?: false
    Max angular momentum: 2

  ==> DFJKGrad: Density-Fitted SCF Gradients <==

    Gradient:                    1
    J tasked:                  Yes
    K tasked:                  Yes
    wK tasked:                  No
    OpenMP threads:             16
    Integrals threads:          16
    Memory (MB):             78678
    Schwarz Cutoff:          0E+00
    Fitting Condition:       1E-12

   => Auxiliary Basis Set <=

  Basis Set: (6-31G(D) AUX)
    Blend: CC-PVDZ-JKFIT
    Number of shells: 84
    Number of basis function: 262
    Number of Cartesian functions: 262
    Spherical Harmonics?: false
    Max angular momentum: 3


  -Total Gradient:
     Atom            X                  Y                   Z
    ------   -----------------  -----------------  -----------------
       1        0.001056413724     0.000031296191     0.000000446790
       2       -0.000157606352     0.000140858936    -0.000003387913
       3       -0.000151905085    -0.000073942383     0.000135968503
       4       -0.000155888702    -0.000084017173    -0.000137038729
       5       -0.000551847692    -0.000040224305     0.000004711623
       6       -0.000039165894     0.000026028735    -0.000000700273


*** tstop() called on wr86 at Thu Dec  6 16:38:27 2018
Module time:
	user time   =      10.45 seconds =       0.17 minutes
	system time =       0.53 seconds =       0.01 minutes
	total time  =          0 seconds =       0.00 minutes
Total time:
	user time   =      64.62 seconds =       1.08 minutes
	system time =       2.79 seconds =       0.05 minutes
	total time  =          4 seconds =       0.07 minutes

  //>>>>>>>>>>>>>>>>>>>>>>>>>>>>>>>>>>>//
  //    Loading displacement 3 of 25   //
  //<<<<<<<<<<<<<<<<<<<<<<<<<<<<<<<<<<<//
gradient() will perform analytic gradient computation.

*** tstart() called on wr86
*** at Thu Dec  6 16:38:27 2018

   => Loading Basis Set <=

    Name: 6-31G(D)
    Role: ORBITAL
    Keyword: BASIS
    atoms 1      entry C          line   111 file /usr/local/hpc1/software_molmod/psi4/psi4conda/share/psi4/basis/6-31g_d_.gbs 
    atoms 2-4, 6 entry H          line    44 file /usr/local/hpc1/software_molmod/psi4/psi4conda/share/psi4/basis/6-31g_d_.gbs 
    atoms 5      entry O          line   145 file /usr/local/hpc1/software_molmod/psi4/psi4conda/share/psi4/basis/6-31g_d_.gbs 


         ---------------------------------------------------------
                                   SCF
            by Justin Turney, Rob Parrish, Andy Simmonett
                             and Daniel Smith
                              RHF Reference
                       16 Threads, 104904 MiB Core
         ---------------------------------------------------------

  ==> Geometry <==

    Molecular point group: c1
    Full point group: C1

    Geometry (in Angstrom), charge = 0, multiplicity = 1:

       Center              X                  Y                   Z               Mass       
    ------------   -----------------  -----------------  -----------------  -----------------
         C           -0.719743990292     0.011866074595     0.005659129232    12.000000000000
         H           -1.074332651427     1.039134550388    -0.018186520132     1.007825032070
         H           -1.106874040133    -0.458740940058     0.901866688869     1.007825032070
         H           -1.121518105893    -0.504708298057    -0.858130160762     1.007825032070
         O            0.681532058290    -0.064208583375    -0.003984390403    15.994914619560
         H            1.056184845291     0.802064183561    -0.029697123143     1.007825032070

  Running in c1 symmetry.

  Rotational constants: A =      4.39504  B =      0.84293  C =      0.81397 [cm^-1]
  Rotational constants: A = 131759.97893  B =  25270.30377  C =  24402.23329 [MHz]
  Nuclear repulsion =   40.727856243280890

  Charge       = 0
  Multiplicity = 1
  Electrons    = 18
  Nalpha       = 9
  Nbeta        = 9

  ==> Algorithm <==

  SCF Algorithm Type is DF.
  DIIS enabled.
  MOM disabled.
  Fractional occupation disabled.
  Guess Type is SAD.
  Energy threshold   = 1.00e-08
  Density threshold  = 1.00e-08
  Integral threshold = 0.00e+00

  ==> Primary Basis <==

  Basis Set: 6-31G(D)
    Blend: 6-31G(D)
    Number of shells: 20
    Number of basis function: 38
    Number of Cartesian functions: 38
    Spherical Harmonics?: false
    Max angular momentum: 2

   => Loading Basis Set <=

    Name: (6-31G(D) AUX)
    Role: JKFIT
    Keyword: DF_BASIS_SCF
    atoms 1      entry C          line   121 file /usr/local/hpc1/software_molmod/psi4/psi4conda/share/psi4/basis/cc-pvdz-jkfit.gbs 
    atoms 2-4, 6 entry H          line    51 file /usr/local/hpc1/software_molmod/psi4/psi4conda/share/psi4/basis/cc-pvdz-jkfit.gbs 
    atoms 5      entry O          line   221 file /usr/local/hpc1/software_molmod/psi4/psi4conda/share/psi4/basis/cc-pvdz-jkfit.gbs 

  ==> Pre-Iterations <==

   -------------------------------------------------------
    Irrep   Nso     Nmo     Nalpha   Nbeta   Ndocc  Nsocc
   -------------------------------------------------------
     A         38      38       0       0       0       0
   -------------------------------------------------------
    Total      38      38       9       9       9       0
   -------------------------------------------------------

  ==> Integral Setup <==

  ==> DiskDFJK: Density-Fitted J/K Matrices <==

    J tasked:                  Yes
    K tasked:                  Yes
    wK tasked:                  No
    OpenMP threads:             16
    Integrals threads:          16
    Memory (MB):             78678
    Algorithm:                Core
    Integral Cache:           NONE
    Schwarz Cutoff:          1E-12
    Fitting Condition:       1E-12

   => Auxiliary Basis Set <=

  Basis Set: (6-31G(D) AUX)
    Blend: CC-PVDZ-JKFIT
    Number of shells: 84
    Number of basis function: 262
    Number of Cartesian functions: 262
    Spherical Harmonics?: false
    Max angular momentum: 3

  Minimum eigenvalue in the overlap matrix is 9.3258525130E-03.
  Using Symmetric Orthogonalization.

  SCF Guess: Superposition of Atomic Densities via on-the-fly atomic UHF.

  ==> Iterations <==

                           Total Energy        Delta E     RMS |[F,P]|

   @DF-RHF iter   0:  -115.38968904553749   -1.15390e+02   2.35186e-01 
   @DF-RHF iter   1:  -114.93916098891491    4.50528e-01   1.93189e-02 
   @DF-RHF iter   2:  -115.00832394159228   -6.91630e-02   1.67257e-02 DIIS
   @DF-RHF iter   3:  -115.03138962199822   -2.30657e-02   2.36371e-03 DIIS
   @DF-RHF iter   4:  -115.03307895509725   -1.68933e-03   5.95315e-04 DIIS
   @DF-RHF iter   5:  -115.03317962704033   -1.00672e-04   1.47931e-04 DIIS
   @DF-RHF iter   6:  -115.03318557462586   -5.94759e-06   6.03490e-05 DIIS
   @DF-RHF iter   7:  -115.03318583074942   -2.56124e-07   8.36686e-06 DIIS
   @DF-RHF iter   8:  -115.03318585000270   -1.92533e-08   3.53846e-06 DIIS
   @DF-RHF iter   9:  -115.03318585141143   -1.40874e-09   5.29801e-07 DIIS
   @DF-RHF iter  10:  -115.03318585151523   -1.03796e-10   7.64189e-08 DIIS
   @DF-RHF iter  11:  -115.03318585151894   -3.70903e-12   3.22834e-08 DIIS
   @DF-RHF iter  12:  -115.03318585151921   -2.70006e-13   2.66198e-09 DIIS

  ==> Post-Iterations <==

    Orbital Energies [Eh]
    ---------------------

    Doubly Occupied:                                                      

       1A    -20.553108     2A    -11.266847     3A     -1.357928  
       4A     -0.927278     5A     -0.693341     6A     -0.619455  
       7A     -0.596029     8A     -0.496528     9A     -0.441093  

    Virtual:                                                              

      10A      0.221928    11A      0.278427    12A      0.325792  
      13A      0.332240    14A      0.395352    15A      0.763119  
      16A      0.763852    17A      0.797094    18A      1.084017  
      19A      1.135616    20A      1.136228    21A      1.183971  
      22A      1.218668    23A      1.250290    24A      1.272578  
      25A      1.447393    26A      1.726777    27A      1.761644  
      28A      1.817296    29A      2.045869    30A      2.428379  
      31A      2.459812    32A      2.511347    33A      2.608812  
      34A      2.737933    35A      2.900957    36A      3.167848  
      37A      4.140007    38A      4.645317  

    Final Occupation by Irrep:
              A 
    DOCC [     9 ]

  Energy converged.

  @DF-RHF Final Energy:  -115.03318585151921

   => Energetics <=

    Nuclear Repulsion Energy =             40.7278562432808897
    One-Electron Energy =                -237.6188690721244825
    Two-Electron Energy =                  81.8578269773243932
    Total Energy =                       -115.0331858515192067



Properties will be evaluated at   0.000000,   0.000000,   0.000000 [a0]

Properties computed using the SCF density matrix

  Nuclear Dipole Moment: [e a0]
     X:    -2.1028      Y:     0.8226      Z:    -0.0039

  Electronic Dipole Moment: [e a0]
     X:     1.7246      Y:    -0.1516      Z:    -0.0105

  Dipole Moment: [e a0]
     X:    -0.3781      Y:     0.6709      Z:    -0.0144     Total:     0.7703

  Dipole Moment: [D]
     X:    -0.9611      Y:     1.7053      Z:    -0.0366     Total:     1.9579


*** tstop() called on wr86 at Thu Dec  6 16:38:28 2018
Module time:
	user time   =      11.55 seconds =       0.19 minutes
	system time =       0.46 seconds =       0.01 minutes
	total time  =          1 seconds =       0.02 minutes
Total time:
	user time   =      76.29 seconds =       1.27 minutes
	system time =       3.26 seconds =       0.05 minutes
	total time  =          5 seconds =       0.08 minutes

*** tstart() called on wr86
*** at Thu Dec  6 16:38:28 2018


         ------------------------------------------------------------
                                   SCF GRAD                          
                          Rob Parrish, Justin Turney,                
                       Andy Simmonett, and Alex Sokolov              
         ------------------------------------------------------------

  ==> Geometry <==

    Molecular point group: c1
    Full point group: C1

    Geometry (in Angstrom), charge = 0, multiplicity = 1:

       Center              X                  Y                   Z               Mass       
    ------------   -----------------  -----------------  -----------------  -----------------
         C           -0.719743990292     0.011866074595     0.005659129232    12.000000000000
         H           -1.074332651427     1.039134550388    -0.018186520132     1.007825032070
         H           -1.106874040133    -0.458740940058     0.901866688869     1.007825032070
         H           -1.121518105893    -0.504708298057    -0.858130160762     1.007825032070
         O            0.681532058290    -0.064208583375    -0.003984390403    15.994914619560
         H            1.056184845291     0.802064183561    -0.029697123143     1.007825032070

  Nuclear repulsion =   40.727856243280890

  ==> Basis Set <==

  Basis Set: 6-31G(D)
    Blend: 6-31G(D)
    Number of shells: 20
    Number of basis function: 38
    Number of Cartesian functions: 38
    Spherical Harmonics?: false
    Max angular momentum: 2

  ==> DFJKGrad: Density-Fitted SCF Gradients <==

    Gradient:                    1
    J tasked:                  Yes
    K tasked:                  Yes
    wK tasked:                  No
    OpenMP threads:             16
    Integrals threads:          16
    Memory (MB):             78678
    Schwarz Cutoff:          0E+00
    Fitting Condition:       1E-12

   => Auxiliary Basis Set <=

  Basis Set: (6-31G(D) AUX)
    Blend: CC-PVDZ-JKFIT
    Number of shells: 84
    Number of basis function: 262
    Number of Cartesian functions: 262
    Spherical Harmonics?: false
    Max angular momentum: 3


  -Total Gradient:
     Atom            X                  Y                   Z
    ------   -----------------  -----------------  -----------------
       1       -0.000059335351    -0.001732706731     0.000002132518
       2       -0.000164162453     0.000805992790    -0.000015334393
       3        0.000091447942     0.000310727363    -0.000267465357
       4        0.000105694183     0.000339652925     0.000283405009
       5       -0.000098176377     0.000289868674    -0.000002306849
       6        0.000124532054    -0.000013535021    -0.000000430928


*** tstop() called on wr86 at Thu Dec  6 16:38:29 2018
Module time:
	user time   =      11.04 seconds =       0.18 minutes
	system time =       0.48 seconds =       0.01 minutes
	total time  =          1 seconds =       0.02 minutes
Total time:
	user time   =      87.35 seconds =       1.46 minutes
	system time =       3.74 seconds =       0.06 minutes
	total time  =          6 seconds =       0.10 minutes

  //>>>>>>>>>>>>>>>>>>>>>>>>>>>>>>>>>>>//
  //    Loading displacement 4 of 25   //
  //<<<<<<<<<<<<<<<<<<<<<<<<<<<<<<<<<<<//
gradient() will perform analytic gradient computation.

*** tstart() called on wr86
*** at Thu Dec  6 16:38:29 2018

   => Loading Basis Set <=

    Name: 6-31G(D)
    Role: ORBITAL
    Keyword: BASIS
    atoms 1      entry C          line   111 file /usr/local/hpc1/software_molmod/psi4/psi4conda/share/psi4/basis/6-31g_d_.gbs 
    atoms 2-4, 6 entry H          line    44 file /usr/local/hpc1/software_molmod/psi4/psi4conda/share/psi4/basis/6-31g_d_.gbs 
    atoms 5      entry O          line   145 file /usr/local/hpc1/software_molmod/psi4/psi4conda/share/psi4/basis/6-31g_d_.gbs 


         ---------------------------------------------------------
                                   SCF
            by Justin Turney, Rob Parrish, Andy Simmonett
                             and Daniel Smith
                              RHF Reference
                       16 Threads, 104904 MiB Core
         ---------------------------------------------------------

  ==> Geometry <==

    Molecular point group: c1
    Full point group: C1

    Geometry (in Angstrom), charge = 0, multiplicity = 1:

       Center              X                  Y                   Z               Mass       
    ------------   -----------------  -----------------  -----------------  -----------------
         C           -0.719743990292     0.012737054497     0.005658409074    12.000000000000
         H           -1.075500904327     1.036929522276    -0.018180926006     1.007825032070
         H           -1.106369372812    -0.460987417466     0.901862449893     1.007825032070
         H           -1.120960108213    -0.506959598595    -0.858134716689     1.007825032070
         O            0.681595711667    -0.064450784883    -0.003984053035    15.994914619560
         H            1.055280207897     0.802240294829    -0.029690701847     1.007825032070

  Running in c1 symmetry.

  Rotational constants: A =      4.39411  B =      0.84294  C =      0.81395 [cm^-1]
  Rotational constants: A = 131732.21746  B =  25270.80573  C =  24401.74895 [MHz]
  Nuclear repulsion =   40.727332314444318

  Charge       = 0
  Multiplicity = 1
  Electrons    = 18
  Nalpha       = 9
  Nbeta        = 9

  ==> Algorithm <==

  SCF Algorithm Type is DF.
  DIIS enabled.
  MOM disabled.
  Fractional occupation disabled.
  Guess Type is SAD.
  Energy threshold   = 1.00e-08
  Density threshold  = 1.00e-08
  Integral threshold = 0.00e+00

  ==> Primary Basis <==

  Basis Set: 6-31G(D)
    Blend: 6-31G(D)
    Number of shells: 20
    Number of basis function: 38
    Number of Cartesian functions: 38
    Spherical Harmonics?: false
    Max angular momentum: 2

   => Loading Basis Set <=

    Name: (6-31G(D) AUX)
    Role: JKFIT
    Keyword: DF_BASIS_SCF
    atoms 1      entry C          line   121 file /usr/local/hpc1/software_molmod/psi4/psi4conda/share/psi4/basis/cc-pvdz-jkfit.gbs 
    atoms 2-4, 6 entry H          line    51 file /usr/local/hpc1/software_molmod/psi4/psi4conda/share/psi4/basis/cc-pvdz-jkfit.gbs 
    atoms 5      entry O          line   221 file /usr/local/hpc1/software_molmod/psi4/psi4conda/share/psi4/basis/cc-pvdz-jkfit.gbs 

  ==> Pre-Iterations <==

   -------------------------------------------------------
    Irrep   Nso     Nmo     Nalpha   Nbeta   Ndocc  Nsocc
   -------------------------------------------------------
     A         38      38       0       0       0       0
   -------------------------------------------------------
    Total      38      38       9       9       9       0
   -------------------------------------------------------

  ==> Integral Setup <==

  ==> DiskDFJK: Density-Fitted J/K Matrices <==

    J tasked:                  Yes
    K tasked:                  Yes
    wK tasked:                  No
    OpenMP threads:             16
    Integrals threads:          16
    Memory (MB):             78678
    Algorithm:                Core
    Integral Cache:           NONE
    Schwarz Cutoff:          1E-12
    Fitting Condition:       1E-12

   => Auxiliary Basis Set <=

  Basis Set: (6-31G(D) AUX)
    Blend: CC-PVDZ-JKFIT
    Number of shells: 84
    Number of basis function: 262
    Number of Cartesian functions: 262
    Spherical Harmonics?: false
    Max angular momentum: 3

  Minimum eigenvalue in the overlap matrix is 9.3272049436E-03.
  Using Symmetric Orthogonalization.

  SCF Guess: Superposition of Atomic Densities via on-the-fly atomic UHF.

  ==> Iterations <==

                           Total Energy        Delta E     RMS |[F,P]|

   @DF-RHF iter   0:  -115.45055442104940   -1.15451e+02   1.56710e-01 
   @DF-RHF iter   1:  -114.92867047859049    5.21884e-01   2.74983e-02 
   @DF-RHF iter   2:  -115.00525298669996   -7.65825e-02   2.16325e-02 DIIS
   @DF-RHF iter   3:  -115.03107462121197   -2.58216e-02   2.71887e-03 DIIS
   @DF-RHF iter   4:  -115.03305942815365   -1.98481e-03   4.20551e-04 DIIS
   @DF-RHF iter   5:  -115.03317782746777   -1.18399e-04   1.51799e-04 DIIS
   @DF-RHF iter   6:  -115.03318542001637   -7.59255e-06   4.09008e-05 DIIS
   @DF-RHF iter   7:  -115.03318582475964   -4.04743e-07   9.10610e-06 DIIS
   @DF-RHF iter   8:  -115.03318584212516   -1.73655e-08   1.62165e-06 DIIS
   @DF-RHF iter   9:  -115.03318584293770   -8.12534e-10   4.58086e-07 DIIS
   @DF-RHF iter  10:  -115.03318584297797   -4.02736e-11   9.43912e-08 DIIS
   @DF-RHF iter  11:  -115.03318584297884   -8.66862e-13   9.78605e-09 DIIS

  ==> Post-Iterations <==

    Orbital Energies [Eh]
    ---------------------

    Doubly Occupied:                                                      

       1A    -20.553194     2A    -11.266808     3A     -1.357988  
       4A     -0.927239     5A     -0.693643     6A     -0.618940  
       7A     -0.595874     8A     -0.497255     9A     -0.440803  

    Virtual:                                                              

      10A      0.222063    11A      0.278392    12A      0.325905  
      13A      0.331786    14A      0.395531    15A      0.763061  
      16A      0.763762    17A      0.797044    18A      1.084767  
      19A      1.135056    20A      1.135804    21A      1.184078  
      22A      1.218453    23A      1.249961    24A      1.273457  
      25A      1.447743    26A      1.726932    27A      1.761292  
      28A      1.816716    29A      2.045554    30A      2.428086  
      31A      2.458900    32A      2.512183    33A      2.610744  
      34A      2.736521    35A      2.900838    36A      3.168004  
      37A      4.139653    38A      4.645302  

    Final Occupation by Irrep:
              A 
    DOCC [     9 ]

  Energy converged.

  @DF-RHF Final Energy:  -115.03318584297884

   => Energetics <=

    Nuclear Repulsion Energy =             40.7273323144443182
    One-Electron Energy =                -237.6175479517322628
    Two-Electron Energy =                  81.8570297943091134
    Total Energy =                       -115.0331858429788383



Properties will be evaluated at   0.000000,   0.000000,   0.000000 [a0]

Properties computed using the SCF density matrix

  Nuclear Dipole Moment: [e a0]
     X:    -2.1037      Y:     0.8164      Z:    -0.0039

  Electronic Dipole Moment: [e a0]
     X:     1.7250      Y:    -0.1438      Z:    -0.0105

  Dipole Moment: [e a0]
     X:    -0.3787      Y:     0.6727      Z:    -0.0144     Total:     0.7721

  Dipole Moment: [D]
     X:    -0.9626      Y:     1.7098      Z:    -0.0365     Total:     1.9625


*** tstop() called on wr86 at Thu Dec  6 16:38:30 2018
Module time:
	user time   =      11.66 seconds =       0.19 minutes
	system time =       0.46 seconds =       0.01 minutes
	total time  =          1 seconds =       0.02 minutes
Total time:
	user time   =      99.14 seconds =       1.65 minutes
	system time =       4.20 seconds =       0.07 minutes
	total time  =          7 seconds =       0.12 minutes

*** tstart() called on wr86
*** at Thu Dec  6 16:38:30 2018


         ------------------------------------------------------------
                                   SCF GRAD                          
                          Rob Parrish, Justin Turney,                
                       Andy Simmonett, and Alex Sokolov              
         ------------------------------------------------------------

  ==> Geometry <==

    Molecular point group: c1
    Full point group: C1

    Geometry (in Angstrom), charge = 0, multiplicity = 1:

       Center              X                  Y                   Z               Mass       
    ------------   -----------------  -----------------  -----------------  -----------------
         C           -0.719743990292     0.012737054497     0.005658409074    12.000000000000
         H           -1.075500904327     1.036929522276    -0.018180926006     1.007825032070
         H           -1.106369372812    -0.460987417466     0.901862449893     1.007825032070
         H           -1.120960108213    -0.506959598595    -0.858134716689     1.007825032070
         O            0.681595711667    -0.064450784883    -0.003984053035    15.994914619560
         H            1.055280207897     0.802240294829    -0.029690701847     1.007825032070

  Nuclear repulsion =   40.727332314444318

  ==> Basis Set <==

  Basis Set: 6-31G(D)
    Blend: 6-31G(D)
    Number of shells: 20
    Number of basis function: 38
    Number of Cartesian functions: 38
    Spherical Harmonics?: false
    Max angular momentum: 2

  ==> DFJKGrad: Density-Fitted SCF Gradients <==

    Gradient:                    1
    J tasked:                  Yes
    K tasked:                  Yes
    wK tasked:                  No
    OpenMP threads:             16
    Integrals threads:          16
    Memory (MB):             78678
    Schwarz Cutoff:          0E+00
    Fitting Condition:       1E-12

   => Auxiliary Basis Set <=

  Basis Set: (6-31G(D) AUX)
    Blend: CC-PVDZ-JKFIT
    Number of shells: 84
    Number of basis function: 262
    Number of Cartesian functions: 262
    Spherical Harmonics?: false
    Max angular momentum: 3


  -Total Gradient:
     Atom            X                  Y                   Z
    ------   -----------------  -----------------  -----------------
       1        0.000050268085     0.001740920888    -0.000002405991
       2        0.000167930685    -0.000812598289     0.000015484250
       3       -0.000090958199    -0.000311730956     0.000266637477
       4       -0.000104246885    -0.000339923558    -0.000282112933
       5        0.000100226668    -0.000292603995     0.000002506227
       6       -0.000123220354     0.000015935909    -0.000000109029


*** tstop() called on wr86 at Thu Dec  6 16:38:31 2018
Module time:
	user time   =      10.50 seconds =       0.17 minutes
	system time =       0.47 seconds =       0.01 minutes
	total time  =          1 seconds =       0.02 minutes
Total time:
	user time   =     109.66 seconds =       1.83 minutes
	system time =       4.67 seconds =       0.08 minutes
	total time  =          8 seconds =       0.13 minutes

  //>>>>>>>>>>>>>>>>>>>>>>>>>>>>>>>>>>>//
  //    Loading displacement 5 of 25   //
  //<<<<<<<<<<<<<<<<<<<<<<<<<<<<<<<<<<<//
gradient() will perform analytic gradient computation.

*** tstart() called on wr86
*** at Thu Dec  6 16:38:31 2018

   => Loading Basis Set <=

    Name: 6-31G(D)
    Role: ORBITAL
    Keyword: BASIS
    atoms 1      entry C          line   111 file /usr/local/hpc1/software_molmod/psi4/psi4conda/share/psi4/basis/6-31g_d_.gbs 
    atoms 2-4, 6 entry H          line    44 file /usr/local/hpc1/software_molmod/psi4/psi4conda/share/psi4/basis/6-31g_d_.gbs 
    atoms 5      entry O          line   145 file /usr/local/hpc1/software_molmod/psi4/psi4conda/share/psi4/basis/6-31g_d_.gbs 


         ---------------------------------------------------------
                                   SCF
            by Justin Turney, Rob Parrish, Andy Simmonett
                             and Daniel Smith
                              RHF Reference
                       16 Threads, 104904 MiB Core
         ---------------------------------------------------------

  ==> Geometry <==

    Molecular point group: c1
    Full point group: C1

    Geometry (in Angstrom), charge = 0, multiplicity = 1:

       Center              X                  Y                   Z               Mass       
    ------------   -----------------  -----------------  -----------------  -----------------
         C           -0.719743990292     0.012301564546     0.005230784264    12.000000000000
         H           -1.074924024332     1.038034932828    -0.016984748732     1.007825032070
         H           -1.106089402139    -0.459910345560     0.903002258560     1.007825032070
         H           -1.121743003413    -0.505786154708    -0.856988597706     1.007825032070
         O            0.681563455957    -0.064330002561    -0.003878152285    15.994914619560
         H            1.055718173962     0.802152769619    -0.029761873164     1.007825032070

  Running in c1 symmetry.

  Rotational constants: A =      4.39456  B =      0.84294  C =      0.81397 [cm^-1]
  Rotational constants: A = 131745.72762  B =  25270.67795  C =  24402.10795 [MHz]
  Nuclear repulsion =   40.727649295073881

  Charge       = 0
  Multiplicity = 1
  Electrons    = 18
  Nalpha       = 9
  Nbeta        = 9

  ==> Algorithm <==

  SCF Algorithm Type is DF.
  DIIS enabled.
  MOM disabled.
  Fractional occupation disabled.
  Guess Type is SAD.
  Energy threshold   = 1.00e-08
  Density threshold  = 1.00e-08
  Integral threshold = 0.00e+00

  ==> Primary Basis <==

  Basis Set: 6-31G(D)
    Blend: 6-31G(D)
    Number of shells: 20
    Number of basis function: 38
    Number of Cartesian functions: 38
    Spherical Harmonics?: false
    Max angular momentum: 2

   => Loading Basis Set <=

    Name: (6-31G(D) AUX)
    Role: JKFIT
    Keyword: DF_BASIS_SCF
    atoms 1      entry C          line   121 file /usr/local/hpc1/software_molmod/psi4/psi4conda/share/psi4/basis/cc-pvdz-jkfit.gbs 
    atoms 2-4, 6 entry H          line    51 file /usr/local/hpc1/software_molmod/psi4/psi4conda/share/psi4/basis/cc-pvdz-jkfit.gbs 
    atoms 5      entry O          line   221 file /usr/local/hpc1/software_molmod/psi4/psi4conda/share/psi4/basis/cc-pvdz-jkfit.gbs 

  ==> Pre-Iterations <==

   -------------------------------------------------------
    Irrep   Nso     Nmo     Nalpha   Nbeta   Ndocc  Nsocc
   -------------------------------------------------------
     A         38      38       0       0       0       0
   -------------------------------------------------------
    Total      38      38       9       9       9       0
   -------------------------------------------------------

  ==> Integral Setup <==

  ==> DiskDFJK: Density-Fitted J/K Matrices <==

    J tasked:                  Yes
    K tasked:                  Yes
    wK tasked:                  No
    OpenMP threads:             16
    Integrals threads:          16
    Memory (MB):             78678
    Algorithm:                Core
    Integral Cache:           NONE
    Schwarz Cutoff:          1E-12
    Fitting Condition:       1E-12

   => Auxiliary Basis Set <=

  Basis Set: (6-31G(D) AUX)
    Blend: CC-PVDZ-JKFIT
    Number of shells: 84
    Number of basis function: 262
    Number of Cartesian functions: 262
    Spherical Harmonics?: false
    Max angular momentum: 3

  Minimum eigenvalue in the overlap matrix is 9.3265218398E-03.
  Using Symmetric Orthogonalization.

  SCF Guess: Superposition of Atomic Densities via on-the-fly atomic UHF.

  ==> Iterations <==

                           Total Energy        Delta E     RMS |[F,P]|

   @DF-RHF iter   0:  -115.68998105151205   -1.15690e+02   1.97569e-01 
   @DF-RHF iter   1:  -114.97338117419707    7.16600e-01   2.29527e-02 
   @DF-RHF iter   2:  -115.02444911371516   -5.10679e-02   1.09598e-02 DIIS
   @DF-RHF iter   3:  -115.03208186932892   -7.63276e-03   2.44819e-03 DIIS
   @DF-RHF iter   4:  -115.03308204336876   -1.00017e-03   5.78773e-04 DIIS
   @DF-RHF iter   5:  -115.03317543411546   -9.33907e-05   1.76618e-04 DIIS
   @DF-RHF iter   6:  -115.03318521847143   -9.78436e-06   4.24693e-05 DIIS
   @DF-RHF iter   7:  -115.03318583910364   -6.20632e-07   6.41961e-06 DIIS
   @DF-RHF iter   8:  -115.03318586685759   -2.77540e-08   1.41088e-06 DIIS
   @DF-RHF iter   9:  -115.03318586775902   -9.01423e-10   2.23878e-07 DIIS
   @DF-RHF iter  10:  -115.03318586778012   -2.11031e-11   4.70046e-08 DIIS
   @DF-RHF iter  11:  -115.03318586778111   -9.94760e-13   1.59632e-08 DIIS
   @DF-RHF iter  12:  -115.03318586778131   -1.98952e-13   4.37648e-09 DIIS

  ==> Post-Iterations <==

    Orbital Energies [Eh]
    ---------------------

    Doubly Occupied:                                                      

       1A    -20.553153     2A    -11.266827     3A     -1.357961  
       4A     -0.927258     5A     -0.693497     6A     -0.619195  
       7A     -0.595948     8A     -0.496900     9A     -0.440943  

    Virtual:                                                              

      10A      0.221998    11A      0.278408    12A      0.325840  
      13A      0.332018    14A      0.395445    15A      0.763092  
      16A      0.763805    17A      0.797070    18A      1.084400  
      19A      1.135238    20A      1.136095    21A      1.184029  
      22A      1.218558    23A      1.250121    24A      1.273027  
      25A      1.447573    26A      1.726856    27A      1.761466  
      28A      1.816996    29A      2.045706    30A      2.428235  
      31A      2.459334    32A      2.511779    33A      2.609803  
      34A      2.737221    35A      2.900897    36A      3.167930  
      37A      4.139827    38A      4.645307  

    Final Occupation by Irrep:
              A 
    DOCC [     9 ]

  Energy converged.

  @DF-RHF Final Energy:  -115.03318586778131

   => Energetics <=

    Nuclear Repulsion Energy =             40.7276492950738813
    One-Electron Energy =                -237.6183057099040639
    Two-Electron Energy =                  81.8574705470488624
    Total Energy =                       -115.0331858677813130



Properties will be evaluated at   0.000000,   0.000000,   0.000000 [a0]

Properties computed using the SCF density matrix

  Nuclear Dipole Moment: [e a0]
     X:    -2.1033      Y:     0.8195      Z:    -0.0007

  Electronic Dipole Moment: [e a0]
     X:     1.7248      Y:    -0.1477      Z:    -0.0147

  Dipole Moment: [e a0]
     X:    -0.3784      Y:     0.6718      Z:    -0.0154     Total:     0.7712

  Dipole Moment: [D]
     X:    -0.9619      Y:     1.7076      Z:    -0.0391     Total:     1.9602


*** tstop() called on wr86 at Thu Dec  6 16:38:32 2018
Module time:
	user time   =      11.80 seconds =       0.20 minutes
	system time =       0.41 seconds =       0.01 minutes
	total time  =          1 seconds =       0.02 minutes
Total time:
	user time   =     121.58 seconds =       2.03 minutes
	system time =       5.08 seconds =       0.08 minutes
	total time  =          9 seconds =       0.15 minutes

*** tstart() called on wr86
*** at Thu Dec  6 16:38:32 2018


         ------------------------------------------------------------
                                   SCF GRAD                          
                          Rob Parrish, Justin Turney,                
                       Andy Simmonett, and Alex Sokolov              
         ------------------------------------------------------------

  ==> Geometry <==

    Molecular point group: c1
    Full point group: C1

    Geometry (in Angstrom), charge = 0, multiplicity = 1:

       Center              X                  Y                   Z               Mass       
    ------------   -----------------  -----------------  -----------------  -----------------
         C           -0.719743990292     0.012301564546     0.005230784264    12.000000000000
         H           -1.074924024332     1.038034932828    -0.016984748732     1.007825032070
         H           -1.106089402139    -0.459910345560     0.903002258560     1.007825032070
         H           -1.121743003413    -0.505786154708    -0.856988597706     1.007825032070
         O            0.681563455957    -0.064330002561    -0.003878152285    15.994914619560
         H            1.055718173962     0.802152769619    -0.029761873164     1.007825032070

  Nuclear repulsion =   40.727649295073881

  ==> Basis Set <==

  Basis Set: 6-31G(D)
    Blend: 6-31G(D)
    Number of shells: 20
    Number of basis function: 38
    Number of Cartesian functions: 38
    Spherical Harmonics?: false
    Max angular momentum: 2

  ==> DFJKGrad: Density-Fitted SCF Gradients <==

    Gradient:                    1
    J tasked:                  Yes
    K tasked:                  Yes
    wK tasked:                  No
    OpenMP threads:             16
    Integrals threads:          16
    Memory (MB):             78678
    Schwarz Cutoff:          0E+00
    Fitting Condition:       1E-12

   => Auxiliary Basis Set <=

  Basis Set: (6-31G(D) AUX)
    Blend: CC-PVDZ-JKFIT
    Number of shells: 84
    Number of basis function: 262
    Number of Cartesian functions: 262
    Spherical Harmonics?: false
    Max angular momentum: 3


  -Total Gradient:
     Atom            X                  Y                   Z
    ------   -----------------  -----------------  -----------------
       1       -0.000011364086    -0.000002178907    -0.001691375623
       2        0.000004863294    -0.000015346015     0.000169368971
       3       -0.000175221648    -0.000265701382     0.000681728330
       4        0.000182501676     0.000285461944     0.000651889865
       5        0.000001796858    -0.000004357167     0.000169919526
       6       -0.000002576096     0.000002121528     0.000018468931


*** tstop() called on wr86 at Thu Dec  6 16:38:32 2018
Module time:
	user time   =      10.36 seconds =       0.17 minutes
	system time =       0.54 seconds =       0.01 minutes
	total time  =          0 seconds =       0.00 minutes
Total time:
	user time   =     131.96 seconds =       2.20 minutes
	system time =       5.63 seconds =       0.09 minutes
	total time  =          9 seconds =       0.15 minutes

  //>>>>>>>>>>>>>>>>>>>>>>>>>>>>>>>>>>>//
  //    Loading displacement 6 of 25   //
  //<<<<<<<<<<<<<<<<<<<<<<<<<<<<<<<<<<<//
gradient() will perform analytic gradient computation.

*** tstart() called on wr86
*** at Thu Dec  6 16:38:32 2018

   => Loading Basis Set <=

    Name: 6-31G(D)
    Role: ORBITAL
    Keyword: BASIS
    atoms 1      entry C          line   111 file /usr/local/hpc1/software_molmod/psi4/psi4conda/share/psi4/basis/6-31g_d_.gbs 
    atoms 2-4, 6 entry H          line    44 file /usr/local/hpc1/software_molmod/psi4/psi4conda/share/psi4/basis/6-31g_d_.gbs 
    atoms 5      entry O          line   145 file /usr/local/hpc1/software_molmod/psi4/psi4conda/share/psi4/basis/6-31g_d_.gbs 


         ---------------------------------------------------------
                                   SCF
            by Justin Turney, Rob Parrish, Andy Simmonett
                             and Daniel Smith
                              RHF Reference
                       16 Threads, 104904 MiB Core
         ---------------------------------------------------------

  ==> Geometry <==

    Molecular point group: c1
    Full point group: C1

    Geometry (in Angstrom), charge = 0, multiplicity = 1:

       Center              X                  Y                   Z               Mass       
    ------------   -----------------  -----------------  -----------------  -----------------
         C           -0.719743990292     0.012301564546     0.006086754042    12.000000000000
         H           -1.074909531421     1.038029139836    -0.019382697406     1.007825032070
         H           -1.107154010806    -0.459818011964     0.900726880202     1.007825032070
         H           -1.120735210692    -0.505881741944    -0.859276279746     1.007825032070
         O            0.681564314000    -0.064329365697    -0.004090291153    15.994914619560
         H            1.055746879227     0.802151708771    -0.029625951826     1.007825032070

  Running in c1 symmetry.

  Rotational constants: A =      4.39459  B =      0.84293  C =      0.81396 [cm^-1]
  Rotational constants: A = 131746.44079  B =  25270.41679  C =  24401.88891 [MHz]
  Nuclear repulsion =   40.727539887479125

  Charge       = 0
  Multiplicity = 1
  Electrons    = 18
  Nalpha       = 9
  Nbeta        = 9

  ==> Algorithm <==

  SCF Algorithm Type is DF.
  DIIS enabled.
  MOM disabled.
  Fractional occupation disabled.
  Guess Type is SAD.
  Energy threshold   = 1.00e-08
  Density threshold  = 1.00e-08
  Integral threshold = 0.00e+00

  ==> Primary Basis <==

  Basis Set: 6-31G(D)
    Blend: 6-31G(D)
    Number of shells: 20
    Number of basis function: 38
    Number of Cartesian functions: 38
    Spherical Harmonics?: false
    Max angular momentum: 2

   => Loading Basis Set <=

    Name: (6-31G(D) AUX)
    Role: JKFIT
    Keyword: DF_BASIS_SCF
    atoms 1      entry C          line   121 file /usr/local/hpc1/software_molmod/psi4/psi4conda/share/psi4/basis/cc-pvdz-jkfit.gbs 
    atoms 2-4, 6 entry H          line    51 file /usr/local/hpc1/software_molmod/psi4/psi4conda/share/psi4/basis/cc-pvdz-jkfit.gbs 
    atoms 5      entry O          line   221 file /usr/local/hpc1/software_molmod/psi4/psi4conda/share/psi4/basis/cc-pvdz-jkfit.gbs 

  ==> Pre-Iterations <==

   -------------------------------------------------------
    Irrep   Nso     Nmo     Nalpha   Nbeta   Ndocc  Nsocc
   -------------------------------------------------------
     A         38      38       0       0       0       0
   -------------------------------------------------------
    Total      38      38       9       9       9       0
   -------------------------------------------------------

  ==> Integral Setup <==

  ==> DiskDFJK: Density-Fitted J/K Matrices <==

    J tasked:                  Yes
    K tasked:                  Yes
    wK tasked:                  No
    OpenMP threads:             16
    Integrals threads:          16
    Memory (MB):             78678
    Algorithm:                Core
    Integral Cache:           NONE
    Schwarz Cutoff:          1E-12
    Fitting Condition:       1E-12

   => Auxiliary Basis Set <=

  Basis Set: (6-31G(D) AUX)
    Blend: CC-PVDZ-JKFIT
    Number of shells: 84
    Number of basis function: 262
    Number of Cartesian functions: 262
    Spherical Harmonics?: false
    Max angular momentum: 3

  Minimum eigenvalue in the overlap matrix is 9.3265382603E-03.
  Using Symmetric Orthogonalization.

  SCF Guess: Superposition of Atomic Densities via on-the-fly atomic UHF.

  ==> Iterations <==

                           Total Energy        Delta E     RMS |[F,P]|

   @DF-RHF iter   0:  -115.24752976197169   -1.15248e+02   1.94108e-01 
   @DF-RHF iter   1:  -114.96376876970405    2.83761e-01   2.76080e-02 
   @DF-RHF iter   2:  -115.01600700945677   -5.22382e-02   1.54837e-02 DIIS
   @DF-RHF iter   3:  -115.03230173275466   -1.62947e-02   1.60525e-03 DIIS
   @DF-RHF iter   4:  -115.03314342999249   -8.41697e-04   3.12070e-04 DIIS
   @DF-RHF iter   5:  -115.03318086796615   -3.74380e-05   8.48871e-05 DIIS
   @DF-RHF iter   6:  -115.03318530025072   -4.43228e-06   5.17295e-05 DIIS
   @DF-RHF iter   7:  -115.03318582006148   -5.19811e-07   9.80814e-06 DIIS
   @DF-RHF iter   8:  -115.03318586487077   -4.48093e-08   2.47447e-06 DIIS
   @DF-RHF iter   9:  -115.03318586663400   -1.76323e-09   4.46831e-07 DIIS
   @DF-RHF iter  10:  -115.03318586672933   -9.53264e-11   1.23944e-07 DIIS
   @DF-RHF iter  11:  -115.03318586673268   -3.35376e-12   1.99887e-08 DIIS
   @DF-RHF iter  12:  -115.03318586673296   -2.84217e-13   2.14390e-09 DIIS

  ==> Post-Iterations <==

    Orbital Energies [Eh]
    ---------------------

    Doubly Occupied:                                                      

       1A    -20.553149     2A    -11.266827     3A     -1.357955  
       4A     -0.927260     5A     -0.693486     6A     -0.619208  
       7A     -0.595950     8A     -0.496883     9A     -0.440952  

    Virtual:                                                              

      10A      0.221994    11A      0.278410    12A      0.325836  
      13A      0.332030    14A      0.395437    15A      0.763092  
      16A      0.763806    17A      0.797067    18A      1.084384  
      19A      1.135257    20A      1.136106    21A      1.184026  
      22A      1.218566    23A      1.250130    24A      1.273006  
      25A      1.447563    26A      1.726851    27A      1.761474  
      28A      1.817013    29A      2.045717    30A      2.428229  
      31A      2.459365    32A      2.511763    33A      2.609745  
      34A      2.737245    35A      2.900896    36A      3.167922  
      37A      4.139832    38A      4.645311  

    Final Occupation by Irrep:
              A 
    DOCC [     9 ]

  Energy converged.

  @DF-RHF Final Energy:  -115.03318586673296

   => Energetics <=

    Nuclear Repulsion Energy =             40.7275398874791250
    One-Electron Energy =                -237.6181121364079445
    Two-Electron Energy =                  81.8573863821958696
    Total Energy =                       -115.0331858667329641



Properties will be evaluated at   0.000000,   0.000000,   0.000000 [a0]

Properties computed using the SCF density matrix

  Nuclear Dipole Moment: [e a0]
     X:    -2.1033      Y:     0.8195      Z:    -0.0071

  Electronic Dipole Moment: [e a0]
     X:     1.7248      Y:    -0.1477      Z:    -0.0063

  Dipole Moment: [e a0]
     X:    -0.3784      Y:     0.6718      Z:    -0.0134     Total:     0.7712

  Dipole Moment: [D]
     X:    -0.9619      Y:     1.7076      Z:    -0.0341     Total:     1.9601


*** tstop() called on wr86 at Thu Dec  6 16:38:33 2018
Module time:
	user time   =      11.54 seconds =       0.19 minutes
	system time =       0.29 seconds =       0.00 minutes
	total time  =          1 seconds =       0.02 minutes
Total time:
	user time   =     143.62 seconds =       2.39 minutes
	system time =       5.93 seconds =       0.10 minutes
	total time  =         10 seconds =       0.17 minutes

*** tstart() called on wr86
*** at Thu Dec  6 16:38:33 2018


         ------------------------------------------------------------
                                   SCF GRAD                          
                          Rob Parrish, Justin Turney,                
                       Andy Simmonett, and Alex Sokolov              
         ------------------------------------------------------------

  ==> Geometry <==

    Molecular point group: c1
    Full point group: C1

    Geometry (in Angstrom), charge = 0, multiplicity = 1:

       Center              X                  Y                   Z               Mass       
    ------------   -----------------  -----------------  -----------------  -----------------
         C           -0.719743990292     0.012301564546     0.006086754042    12.000000000000
         H           -1.074909531421     1.038029139836    -0.019382697406     1.007825032070
         H           -1.107154010806    -0.459818011964     0.900726880202     1.007825032070
         H           -1.120735210692    -0.505881741944    -0.859276279746     1.007825032070
         O            0.681564314000    -0.064329365697    -0.004090291153    15.994914619560
         H            1.055746879227     0.802151708771    -0.029625951826     1.007825032070

  Nuclear repulsion =   40.727539887479125

  ==> Basis Set <==

  Basis Set: 6-31G(D)
    Blend: 6-31G(D)
    Number of shells: 20
    Number of basis function: 38
    Number of Cartesian functions: 38
    Spherical Harmonics?: false
    Max angular momentum: 2

  ==> DFJKGrad: Density-Fitted SCF Gradients <==

    Gradient:                    1
    J tasked:                  Yes
    K tasked:                  Yes
    wK tasked:                  No
    OpenMP threads:             16
    Integrals threads:          16
    Memory (MB):             78678
    Schwarz Cutoff:          0E+00
    Fitting Condition:       1E-12

   => Auxiliary Basis Set <=

  Basis Set: (6-31G(D) AUX)
    Blend: CC-PVDZ-JKFIT
    Number of shells: 84
    Number of basis function: 262
    Number of Cartesian functions: 262
[...]
    atoms 5      entry O          line   221 file /usr/local/hpc1/software_molmod/psi4/psi4conda/share/psi4/basis/cc-pvdz-jkfit.gbs 

  ==> Pre-Iterations <==

   -------------------------------------------------------
    Irrep   Nso     Nmo     Nalpha   Nbeta   Ndocc  Nsocc
   -------------------------------------------------------
     A         38      38       0       0       0       0
   -------------------------------------------------------
    Total      38      38       9       9       9       0
   -------------------------------------------------------

  ==> Integral Setup <==

  ==> DiskDFJK: Density-Fitted J/K Matrices <==

    J tasked:                  Yes
    K tasked:                  Yes
    wK tasked:                  No
    OpenMP threads:             16
    Integrals threads:          16
    Memory (MB):             78678
    Algorithm:                Core
    Integral Cache:           NONE
    Schwarz Cutoff:          1E-12
    Fitting Condition:       1E-12

   => Auxiliary Basis Set <=

  Basis Set: (6-31G(D) AUX)
    Blend: CC-PVDZ-JKFIT
    Number of shells: 84
    Number of basis function: 262
    Number of Cartesian functions: 262
    Spherical Harmonics?: false
    Max angular momentum: 3

  Minimum eigenvalue in the overlap matrix is 9.3265209562E-03.
  Using Symmetric Orthogonalization.

  SCF Guess: Superposition of Atomic Densities via on-the-fly atomic UHF.

  ==> Iterations <==

                           Total Energy        Delta E     RMS |[F,P]|

   @DF-RHF iter   0:  -115.32731590215992   -1.15327e+02   1.73962e-01 
   @DF-RHF iter   1:  -114.95106033628160    3.76256e-01   2.35713e-02 
   @DF-RHF iter   2:  -115.01249029879091   -6.14300e-02   1.54865e-02 DIIS
   @DF-RHF iter   3:  -115.03195895021064   -1.94687e-02   2.95372e-03 DIIS
   @DF-RHF iter   4:  -115.03310494059494   -1.14599e-03   5.54593e-04 DIIS
   @DF-RHF iter   5:  -115.03317704565372   -7.21051e-05   1.55941e-04 DIIS
   @DF-RHF iter   6:  -115.03318700191315   -9.95626e-06   4.90101e-05 DIIS
   @DF-RHF iter   7:  -115.03318796995730   -9.68044e-07   1.33909e-05 DIIS
   @DF-RHF iter   8:  -115.03318804267258   -7.27153e-08   2.85863e-06 DIIS
   @DF-RHF iter   9:  -115.03318804603815   -3.36557e-09   6.94622e-07 DIIS
   @DF-RHF iter  10:  -115.03318804618156   -1.43416e-10   9.79846e-08 DIIS
   @DF-RHF iter  11:  -115.03318804618553   -3.96483e-12   2.37211e-08 DIIS
   @DF-RHF iter  12:  -115.03318804618561   -8.52651e-14   3.75607e-09 DIIS

  ==> Post-Iterations <==

    Orbital Energies [Eh]
    ---------------------

    Doubly Occupied:                                                      

       1A    -20.553151     2A    -11.266827     3A     -1.357958  
       4A     -0.927258     5A     -0.693491     6A     -0.619197  
       7A     -0.595952     8A     -0.496892     9A     -0.440949  

    Virtual:                                                              

      10A      0.221996    11A      0.278410    12A      0.325849  
      13A      0.332014    14A      0.395441    15A      0.763092  
      16A      0.763806    17A      0.797068    18A      1.084394  
      19A      1.135642    20A      1.135712    21A      1.184026  
      22A      1.218555    23A      1.250125    24A      1.273016  
      25A      1.447568    26A      1.726854    27A      1.761468  
      28A      1.817005    29A      2.045711    30A      2.428235  
      31A      2.459357    32A      2.511770    33A      2.609774  
      34A      2.737227    35A      2.900896    36A      3.167927  
      37A      4.139830    38A      4.645309  

    Final Occupation by Irrep:
              A 
    DOCC [     9 ]

  Energy converged.

  @DF-RHF Final Energy:  -115.03318804618561

   => Energetics <=

    Nuclear Repulsion Energy =             40.7275980624984797
    One-Electron Energy =                -237.6182221177811300
    Two-Electron Energy =                  81.8574360090970288
    Total Energy =                       -115.0331880461856144



Properties will be evaluated at   0.000000,   0.000000,   0.000000 [a0]

Properties computed using the SCF density matrix

  Nuclear Dipole Moment: [e a0]
     X:    -2.1033      Y:     0.8195      Z:    -0.0039

  Electronic Dipole Moment: [e a0]
     X:     1.7248      Y:    -0.1477      Z:    -0.0105

  Dipole Moment: [e a0]
     X:    -0.3784      Y:     0.6718      Z:    -0.0144     Total:     0.7712

  Dipole Moment: [D]
     X:    -0.9619      Y:     1.7076      Z:    -0.0366     Total:     1.9602


*** tstop() called on wr86 at Thu Dec  6 16:39:04 2018
Module time:
	user time   =      11.59 seconds =       0.19 minutes
	system time =       0.41 seconds =       0.01 minutes
	total time  =          1 seconds =       0.02 minutes
Total time:
	user time   =     571.02 seconds =       9.52 minutes
	system time =      23.33 seconds =       0.39 minutes
	total time  =         41 seconds =       0.68 minutes

*** tstart() called on wr86
*** at Thu Dec  6 16:39:04 2018


         ------------------------------------------------------------
                                   SCF GRAD                          
                          Rob Parrish, Justin Turney,                
                       Andy Simmonett, and Alex Sokolov              
         ------------------------------------------------------------

  ==> Geometry <==

    Molecular point group: c1
    Full point group: C1

    Geometry (in Angstrom), charge = 0, multiplicity = 1:

       Center              X                  Y                   Z               Mass       
    ------------   -----------------  -----------------  -----------------  -----------------
         C           -0.719743990292     0.012301564546     0.005658769153    12.000000000000
         H           -1.074916777877     1.038032036332    -0.018183723069     1.007825032070
         H           -1.106621706473    -0.459864178762     0.901864569381     1.007825032070
         H           -1.121239107053    -0.505833948326    -0.858132438726     1.007825032070
         O            0.681563884978    -0.064329684129    -0.003984221719    15.994914619560
         H            1.055732526594     0.802152239195    -0.029693912495     1.007825032070

  Nuclear repulsion =   40.727598062498480

  ==> Basis Set <==

  Basis Set: 6-31G(D)
    Blend: 6-31G(D)
    Number of shells: 20
    Number of basis function: 38
    Number of Cartesian functions: 38
    Spherical Harmonics?: false
    Max angular momentum: 2

  ==> DFJKGrad: Density-Fitted SCF Gradients <==

    Gradient:                    1
    J tasked:                  Yes
    K tasked:                  Yes
    wK tasked:                  No
    OpenMP threads:             16
    Integrals threads:          16
    Memory (MB):             78678
    Schwarz Cutoff:          0E+00
    Fitting Condition:       1E-12

   => Auxiliary Basis Set <=

  Basis Set: (6-31G(D) AUX)
    Blend: CC-PVDZ-JKFIT
    Number of shells: 84
    Number of basis function: 262
    Number of Cartesian functions: 262
    Spherical Harmonics?: false
    Max angular momentum: 3


  -Total Gradient:
     Atom            X                  Y                   Z
    ------   -----------------  -----------------  -----------------
       1       -0.000002276352     0.000000560414     0.000000103890
       2        0.000000257263    -0.000000451038    -0.000000012583
       3       -0.000000001657    -0.000000177159    -0.000000113042
       4        0.000000381818     0.000000122604     0.000000192645
       5        0.000000971582    -0.000001161981     0.000000099970
       6        0.000000667343     0.000001107161    -0.000000270881


*** tstop() called on wr86 at Thu Dec  6 16:39:04 2018
Module time:
	user time   =      10.43 seconds =       0.17 minutes
	system time =       0.51 seconds =       0.01 minutes
	total time  =          0 seconds =       0.00 minutes
Total time:
	user time   =     581.48 seconds =       9.69 minutes
	system time =      23.84 seconds =       0.40 minutes
	total time  =         41 seconds =       0.68 minutes

-------------------------------------------------------------

  Computing second-derivative from gradients using projected, 
  symmetry-adapted, cartesian coordinates (fd_freq_1).

  25 gradients passed in, including the reference geometry.
  Generating complete list of displacements from unique ones.


-------------------------------------------------------------


  ==> Harmonic Vibrational Analysis <==

  non-mass-weighted Hessian:       Symmetric? True   Hermitian? True   Lin Dep Dim?  6 (0)
  projection of translations (True) and rotations (True) removed 6 degrees of freedom (6)
  total projector:                 Symmetric? True   Hermitian? True   Lin Dep Dim?  6 (6)
  mass-weighted Hessian:           Symmetric? True   Hermitian? True   Lin Dep Dim?  6 (0)
  pre-proj  low-frequency mode:    0.0000i [cm^-1]
  pre-proj  low-frequency mode:    0.0000i [cm^-1]
  pre-proj  low-frequency mode:    0.0000i [cm^-1]
  pre-proj  low-frequency mode:    0.0000i [cm^-1]
  pre-proj  low-frequency mode:    0.0000  [cm^-1]
  pre-proj  low-frequency mode:    0.0000  [cm^-1]
  pre-proj  low-frequency mode:    0.0000  [cm^-1]
  pre-proj  all modes:['351.3157i' '0.0000i' '0.0000i' '0.0000i' '0.0000' '0.0000' '0.0000'
 '1180.4036' '1188.4029' '1297.9805' '1487.6752' '1643.3310' '1643.8310'
 '1669.8013' '3200.8130' '3262.1095' '3270.7988' '4151.0957']
  projected mass-weighted Hessian: Symmetric? True   Hermitian? True   Lin Dep Dim?  6 (6)
  post-proj low-frequency mode:  351.3157i [cm^-1] (V)
  post-proj low-frequency mode:    0.0000i [cm^-1] (TR)
  post-proj low-frequency mode:    0.0000i [cm^-1] (TR)
  post-proj low-frequency mode:    0.0000  [cm^-1] (TR)
  post-proj low-frequency mode:    0.0000  [cm^-1] (TR)
  post-proj low-frequency mode:    0.0000  [cm^-1] (TR)
  post-proj low-frequency mode:    0.0001  [cm^-1] (TR)
  post-proj  all modes:['351.3157i' '0.0000i' '0.0000i' '0.0000' '0.0000' '0.0000' '0.0001'
 '1180.4036' '1188.4029' '1297.9805' '1487.6752' '1643.3310' '1643.8310'
 '1669.8013' '3200.8130' '3262.1095' '3270.7988' '4151.0957']

  Vibration                       1                   8                   9           
  Freq [cm^-1]                351.3157i           1180.4036           1188.4029       
  Irrep                           A                   A                   A           
  Reduced mass [u]              1.0894              7.0471              1.0842        
  Force const [mDyne/A]        -0.0792              5.7853              0.9021        
  Turning point v=0 [a0]        0.0000              0.1203              0.3057        
  RMS dev v=0 [a0 u^1/2]        0.0000              0.2258              0.2251        
  Char temp [K]                 0.0000            1698.3353           1709.8446       
  ----------------------------------------------------------------------------------
      1   C                0.00  0.00  0.02   -0.51  0.03  0.00   -0.02  0.08 -0.00   
      2   H               -0.00 -0.01 -0.26   -0.43  0.05  0.00   -0.57 -0.11  0.01   
      3   H               -0.02  0.22  0.14   -0.39  0.03  0.02    0.27 -0.23 -0.04   
      4   H                0.02 -0.21  0.15   -0.39  0.02 -0.02    0.27 -0.23  0.04   
      5   O               -0.00 -0.00 -0.07    0.46 -0.04 -0.00   -0.02 -0.01  0.00   
      6   H                0.01  0.02  0.89    0.04  0.18 -0.00    0.58 -0.26  0.00   

  Vibration                       10                  11                  12          
  Freq [cm^-1]                1297.9805           1487.6752           1643.3310       
  Irrep                           A                   A                   A           
  Reduced mass [u]              1.2411              1.2741              1.1563        
  Force const [mDyne/A]         1.2320              1.6613              1.8397        
  Turning point v=0 [a0]        0.2734              0.2520              0.2517        
  RMS dev v=0 [a0 u^1/2]        0.2154              0.2012              0.1914        
  Char temp [K]               1867.5021           2140.4302           2364.3838       
  ----------------------------------------------------------------------------------
      1   C               -0.00 -0.00 -0.13   -0.04 -0.11  0.00   -0.12  0.01  0.00   
      2   H                0.00  0.01  0.26    0.41  0.03 -0.00    0.57  0.22 -0.00   
      3   H                0.64  0.07  0.18   -0.22  0.13  0.06    0.50 -0.15  0.16   
      4   H               -0.64 -0.06  0.19   -0.23  0.13 -0.06    0.51 -0.16 -0.16   
      5   O                0.00  0.00  0.05   -0.02  0.08 -0.00   -0.01  0.00  0.00   
      6   H                0.00  0.00  0.12    0.77 -0.27  0.00   -0.04  0.01  0.00   

  Vibration                       13                  14                  15          
  Freq [cm^-1]                1643.8310           1669.8013           3200.8130       
  Irrep                           A                   A                   A           
  Reduced mass [u]              1.0495              1.0468              1.0324        
  Force const [mDyne/A]         1.6709              1.7196              6.2316        
  Turning point v=0 [a0]        0.2642              0.2625              0.1909        
  RMS dev v=0 [a0 u^1/2]        0.1914              0.1899              0.1371        
  Char temp [K]               2365.1032           2402.4686           4605.2502       
  ----------------------------------------------------------------------------------
      1   C                0.00 -0.00 -0.06   -0.01 -0.06  0.00    0.04 -0.02  0.00   
      2   H                0.00  0.02  0.73   -0.31 -0.13  0.01   -0.21  0.67 -0.02   
      3   H               -0.28  0.39  0.05    0.23  0.50  0.38   -0.17 -0.22  0.42   
      4   H                0.27 -0.39  0.07    0.22  0.48 -0.41   -0.17 -0.25 -0.40   
      5   O                0.00 -0.00 -0.01   -0.00 -0.01  0.00    0.00 -0.00 -0.00   
      6   H                0.00 -0.00 -0.01   -0.02 -0.00  0.00    0.00  0.00 -0.00   

  Vibration                       16                  17                  18          
  Freq [cm^-1]                3262.1095           3270.7988           4151.0957       
  Irrep                           A                   A                   A           
  Reduced mass [u]              1.1046              1.1070              1.0678        
  Force const [mDyne/A]         6.9253              6.9777             10.8405        
  Turning point v=0 [a0]        0.1828              0.1824              0.1648        
  RMS dev v=0 [a0 u^1/2]        0.1358              0.1357              0.1204        
  Char temp [K]               4693.4422           4705.9440           5972.4934       
  ----------------------------------------------------------------------------------
      1   C               -0.01 -0.09  0.00   -0.00 -0.00 -0.09    0.00 -0.00  0.00   
      2   H               -0.21  0.67 -0.02   -0.00 -0.00 -0.02    0.00  0.01 -0.00   
      3   H                0.17  0.20 -0.43   -0.24 -0.32  0.58    0.00  0.00 -0.01   
      4   H                0.17  0.22  0.41    0.25  0.35  0.56    0.00  0.00  0.01   
      5   O               -0.00  0.00 -0.00    0.00  0.00  0.00   -0.03 -0.06  0.00   
      6   H                0.00 -0.02  0.00   -0.00 -0.00 -0.01    0.40  0.91 -0.03   

  ==> Thermochemistry Components <==

  Entropy, S
    Electronic S            0.000 [cal/(mol K)]        0.000 [J/(mol K)]       0.00000000 [mEh/K] (multiplicity = 1)
    Translational S        36.324 [cal/(mol K)]      151.980 [J/(mol K)]       0.05788607 [mEh/K] (mol. weight = 32.0262 [u], P = 101325.00 [Pa])
    Rotational S           18.921 [cal/(mol K)]       79.164 [J/(mol K)]       0.03015200 [mEh/K] (symmetry no. = 1)
    Vibrational S           0.147 [cal/(mol K)]        0.613 [J/(mol K)]       0.00023365 [mEh/K]
  Total S                  55.391 [cal/(mol K)]      231.757 [J/(mol K)]       0.08827172 [mEh/K]
  Correction S              0.000 [cal/(mol K)]        0.000 [J/(mol K)]       0.00000000 [mEh/K]

  Constant volume heat capacity, Cv
    Electronic Cv           0.000 [cal/(mol K)]        0.000 [J/(mol K)]       0.00000000 [mEh/K]
    Translational Cv        2.981 [cal/(mol K)]       12.472 [J/(mol K)]       0.00475022 [mEh/K]
    Rotational Cv           2.981 [cal/(mol K)]       12.472 [J/(mol K)]       0.00475022 [mEh/K]
    Vibrational Cv          0.789 [cal/(mol K)]        3.300 [J/(mol K)]       0.00125707 [mEh/K]
  Total Cv                  6.750 [cal/(mol K)]       28.244 [J/(mol K)]       0.01075751 [mEh/K]
  Correction Cv             0.000 [cal/(mol K)]        0.000 [J/(mol K)]       0.00000000 [mEh/K]

  Constant pressure heat capacity, Cp
    Electronic Cp           0.000 [cal/(mol K)]        0.000 [J/(mol K)]       0.00000000 [mEh/K]
    Translational Cp        4.968 [cal/(mol K)]       20.786 [J/(mol K)]       0.00791704 [mEh/K]
    Rotational Cp           2.981 [cal/(mol K)]       12.472 [J/(mol K)]       0.00475022 [mEh/K]
    Vibrational Cp          0.789 [cal/(mol K)]        3.300 [J/(mol K)]       0.00125707 [mEh/K]
  Total Cp                  8.738 [cal/(mol K)]       36.558 [J/(mol K)]       0.01392433 [mEh/K]
  Correction Cp             0.000 [cal/(mol K)]        0.000 [J/(mol K)]       0.00000000 [mEh/K]

  ==> Thermochemistry Energy Analysis <==

  Raw electronic energy, E0
  Total E0, Electronic energy at well bottom at 0 [K]                 -115.03318805 [Eh]

  Zero-point energy, ZPE_vib = Sum_i nu_i / 2
    Electronic ZPE          0.000 [kcal/mol]        0.000 [kJ/mol]       0.00000000 [Eh]
    Translational ZPE       0.000 [kcal/mol]        0.000 [kJ/mol]       0.00000000 [Eh]
    Rotational ZPE          0.000 [kcal/mol]        0.000 [kJ/mol]       0.00000000 [Eh]
    Vibrational ZPE        34.304 [kcal/mol]      143.529 [kJ/mol]       0.05466745 [Eh]       11998.117 [cm^-1]
  Correction ZPE           34.304 [kcal/mol]      143.529 [kJ/mol]       0.05466745 [Eh]       11998.117 [cm^-1]
  Total ZPE, Electronic energy at 0 [K]                               -114.97852059 [Eh]

  Thermal Energy, E (includes ZPE)
    Electronic E            0.000 [kcal/mol]        0.000 [kJ/mol]       0.00000000 [Eh]
    Translational E         0.889 [kcal/mol]        3.718 [kJ/mol]       0.00141628 [Eh]
    Rotational E            0.889 [kcal/mol]        3.718 [kJ/mol]       0.00141628 [Eh]
    Vibrational E          34.342 [kcal/mol]      143.687 [kJ/mol]       0.05472739 [Eh]
  Correction E             36.119 [kcal/mol]      151.124 [kJ/mol]       0.05755994 [Eh]
  Total E, Electronic energy at  298.15 [K]                           -114.97562810 [Eh]

  Enthalpy, H_trans = E_trans + k_B * T
    Electronic H            0.000 [kcal/mol]        0.000 [kJ/mol]       0.00000000 [Eh]
    Translational H         1.481 [kcal/mol]        6.197 [kJ/mol]       0.00236046 [Eh]
    Rotational H            0.889 [kcal/mol]        3.718 [kJ/mol]       0.00141628 [Eh]
    Vibrational H          34.342 [kcal/mol]      143.687 [kJ/mol]       0.05472739 [Eh]
  Correction H             36.712 [kcal/mol]      153.603 [kJ/mol]       0.05850413 [Eh]
  Total H, Enthalpy at  298.15 [K]                                    -114.97468392 [Eh]

  Gibbs free energy, G = H - T * S
    Electronic G            0.000 [kcal/mol]        0.000 [kJ/mol]       0.00000000 [Eh]
    Translational G        -9.349 [kcal/mol]      -39.115 [kJ/mol]      -0.01489827 [Eh]
    Rotational G           -4.752 [kcal/mol]      -19.884 [kJ/mol]      -0.00757354 [Eh]
    Vibrational G          34.298 [kcal/mol]      143.504 [kJ/mol]       0.05465772 [Eh]
  Correction G             20.197 [kcal/mol]       84.504 [kJ/mol]       0.03218592 [Eh]
  Total G, Free enthalpy at  298.15 [K]                               -115.00100213 [Eh]

    Psi4 stopped on: Thursday, 06 December 2018 04:39PM
    Psi4 wall time for execution: 0:00:42.01

*** Psi4 exiting successfully. Buy a developer a beer!
